DF-ISE text

Info {
  version   = 1.0
  type      = xyplot
  datasets  = [
    "time"
    "Source OuterVoltage" "Source InnerVoltage" "Source QuasiFermiPotential" "Source DisplacementCurrent" "Source eCurrent"
    "Source hCurrent" "Source TotalCurrent" "Source Charge" "Gate OuterVoltage" "Gate InnerVoltage"
    "Gate QuasiFermiPotential" "Gate DisplacementCurrent" "Gate eCurrent" "Gate hCurrent" "Gate TotalCurrent"
    "Gate Charge" "Body OuterVoltage" "Body InnerVoltage" "Body QuasiFermiPotential" "Body DisplacementCurrent"
    "Body eCurrent" "Body hCurrent" "Body TotalCurrent" "Body Charge" "Drain OuterVoltage"
    "Drain InnerVoltage" "Drain QuasiFermiPotential" "Drain DisplacementCurrent" "Drain eCurrent" "Drain hCurrent"
    "Drain TotalCurrent" "Drain Charge" "SimStats Restarts" "SimStats CumulativeRestarts" "SimStats Stepsize"
    "SimStats Rhs" "SimStats error" "SimStats Iterations" "SimStats CumulativeIterations" "SimStats AssemblyTime"
    "SimStats SolveTime" "SimStats TotalTime" "SimStats CumulativeAssemblyTime" "SimStats CumulativeSolveTime" "SimStats CumulativeTotalTime"
    "SimStats AssemblyTime_wall" "SimStats SolveTime_wall" "SimStats TotalTime_wall" "SimStats CumulativeAssemblyTime_wall" "SimStats CumulativeSolveTime_wall"
    "SimStats CumulativeTotalTime_wall" "SimStats PeakMemory" "SimStats AverageMemory" ]
  functions = [
    Time
    OuterVoltage InnerVoltage QuasiFermiPotential DisplacementCurrent eCurrent
    hCurrent TotalCurrent Charge OuterVoltage InnerVoltage
    QuasiFermiPotential DisplacementCurrent eCurrent hCurrent TotalCurrent
    Charge OuterVoltage InnerVoltage QuasiFermiPotential DisplacementCurrent
    eCurrent hCurrent TotalCurrent Charge OuterVoltage
    InnerVoltage QuasiFermiPotential DisplacementCurrent eCurrent hCurrent
    TotalCurrent Charge Restarts CumulativeRestarts Stepsize
    Rhs error Iterations CumulativeIterations AssemblyTime
    SolveTime TotalTime CumulativeAssemblyTime CumulativeSolveTime CumulativeTotalTime
    AssemblyTime_wall SolveTime_wall TotalTime_wall CumulativeAssemblyTime_wall CumulativeSolveTime_wall
    CumulativeTotalTime_wall PeakMemory AverageMemory ]
}

Data {
      2.00050000000000E+00
      0.00000000000000E+00   0.00000000000000E+00   0.00000000000000E+00  -2.19258685567348E-15   4.35339202591084E-03
      1.77556144220265E-02   2.21090064479352E-02   5.49721922651249E-12  -1.99800000000000E+01  -1.99800000000000E+01
      0.00000000000000E+00   1.17001023157203E-11  -9.06572288037772E-03  -3.84582642606071E-02  -4.75239871292847E-02
     -3.15625744462893E-11   0.00000000000000E+00   0.00000000000000E+00   0.00000000000000E+00  -2.57687456463652E-12
     -5.99642239566083E-06  -1.33760467634231E-12  -5.99642631014007E-06   2.39687314179599E-11   1.00000000000000E+00
      1.00000000000000E+00   0.00000000000000E+00  -1.96928448148355E-15   4.39084433818018E-03   2.10301327694814E-02
      2.54209771076596E-02   5.49662380181698E-12   1.00000000000000E+00   2.00000000000000E+00   5.00000000000000E-04
      1.64306320926792E-05   3.56223543339599E-06   5.00000000000000E+00   5.10000000000000E+02   2.84000000000000E+00
      2.13000000000000E+00   5.03000000000000E+00   2.64930000000000E+02   2.37960000000000E+02   5.10460000000000E+02
      9.70000000000000E-01   7.70000000000000E-01   1.78000000000000E+00   9.43700000000000E+01   8.45700000000000E+01
      1.82820000000000E+02   7.37000000000000E+02   8.30000000000000E+01
      2.00150000000000E+00
      0.00000000000000E+00   0.00000000000000E+00   0.00000000000000E+00  -1.31287245035089E-15   4.35149728412405E-03
      1.77532870062171E-02   2.21047842903398E-02   5.49722571977626E-12  -1.99400000000000E+01  -1.99400000000000E+01
      0.00000000000000E+00   1.21606175845334E-11  -9.06557538876846E-03  -3.84566833288643E-02  -4.75222587054722E-02
     -3.15502212204844E-11   0.00000000000000E+00   0.00000000000000E+00   0.00000000000000E+00  -9.29713466502655E-13
     -6.02558441363445E-06  -4.26754920495727E-12  -6.02558961089713E-06   2.39563893272875E-11   1.00000000000000E+00
      1.00000000000000E+00   0.00000000000000E+00  -1.27716031505209E-15   4.39259724902331E-03   2.10309027557212E-02
      2.54235000047432E-02   5.49660617342065E-12   0.00000000000000E+00   2.00000000000000E+00   1.00000000000000E-03
      1.92334359392291E-05   3.46663300170873E-08   4.00000000000000E+00   5.14000000000000E+02   2.34000000000000E+00
      1.70000000000000E+00   4.09000000000000E+00   2.67270000000000E+02   2.39660000000000E+02   5.14550000000000E+02
      8.40000000000000E-01   6.60000000000000E-01   1.51000000000000E+00   9.52100000000000E+01   8.52300000000000E+01
      1.84330000000000E+02   7.37000000000000E+02   8.20000000000000E+01
      2.00350000000000E+00
      0.00000000000000E+00   0.00000000000000E+00   0.00000000000000E+00  -9.87879058037429E-16   4.34755502392980E-03
      1.77486070102569E-02   2.20961620341857E-02   5.49725314025525E-12  -1.98600000000000E+01  -1.98600000000000E+01
      0.00000000000000E+00   1.23566806912660E-11  -9.06527057889607E-03  -3.84535711332786E-02  -4.75188416998180E-02
     -3.15250053210784E-11   0.00000000000000E+00   0.00000000000000E+00   0.00000000000000E+00  -3.15301268257738E-13
     -6.06922679663649E-06  -5.35765052081897E-12  -6.06923246958828E-06   2.39311758471391E-11   1.00000000000000E+00
      1.00000000000000E+00   0.00000000000000E+00  -1.01215605182778E-15   4.39623323421865E-03   2.10325156638843E-02
      2.54287488981019E-02   5.49657633368410E-12   0.00000000000000E+00   2.00000000000000E+00   2.00000000000000E-03
      4.50400113640442E-05   7.45301814417156E-03   3.00000000000000E+00   5.17000000000000E+02   1.84000000000000E+00
      1.22000000000000E+00   3.11000000000000E+00   2.69110000000000E+02   2.40880000000000E+02   5.17660000000000E+02
      6.30000000000000E-01   4.20000000000000E-01   1.08000000000000E+00   9.58400000000000E+01   8.56500000000000E+01
      1.85410000000000E+02   7.37000000000000E+02   8.90000000000000E+01
      2.00750000000000E+00
      0.00000000000000E+00   0.00000000000000E+00   0.00000000000000E+00  -9.31481016156158E-16   4.33908267173350E-03
      1.77391085534481E-02   2.20781912251806E-02   5.49731245594779E-12  -1.97000000000000E+01  -1.97000000000000E+01
      0.00000000000000E+00   1.24486134777244E-11  -9.06464139609970E-03  -3.84474992075514E-02  -4.75121405912025E-02
     -3.14742207584125E-11   0.00000000000000E+00   0.00000000000000E+00   0.00000000000000E+00  -1.96322894459540E-13
     -6.15157223338654E-06  -5.56175798304288E-12  -6.15157799146742E-06   2.38803903242157E-11   1.00000000000000E+00
      1.00000000000000E+00   0.00000000000000E+00  -9.45335561943263E-16   4.40407512832534E-03   2.10360258156890E-02
      2.54401009440134E-02   5.49651797824895E-12   0.00000000000000E+00   2.00000000000000E+00   4.00000000000000E-03
      7.88122565753829E-06   3.35410257742139E-08   7.00000000000000E+00   5.24000000000000E+02   3.81000000000000E+00
      3.07000000000000E+00   6.95000000000000E+00   2.72920000000000E+02   2.43950000000000E+02   5.24610000000000E+02
      1.30000000000000E+00   1.01000000000000E+00   2.38000000000000E+00   9.71400000000000E+01   8.66600000000000E+01
      1.87790000000000E+02   7.37000000000000E+02   7.60000000000000E+01
      2.01550000000000E+00
      0.00000000000000E+00   0.00000000000000E+00   0.00000000000000E+00  -9.44160422722204E-16   4.31987271451169E-03
      1.77193647258476E-02   2.20392374403584E-02   5.49743061833109E-12  -1.93800000000000E+01  -1.93800000000000E+01
      0.00000000000000E+00   1.25564644097427E-11  -9.06331070091087E-03  -3.84357333202189E-02  -4.74990440085733E-02
     -3.13720140993744E-11   0.00000000000000E+00   0.00000000000000E+00   0.00000000000000E+00  -1.86623672860029E-13
     -6.31831428352760E-06  -5.56467337283195E-12  -6.31832003482464E-06   2.37781850465092E-11   1.00000000000000E+00
      1.00000000000000E+00   0.00000000000000E+00  -9.04967801553969E-16   4.42197693880633E-03   2.10441479494443E-02
      2.54661248882498E-02   5.49639843453418E-12   0.00000000000000E+00   2.00000000000000E+00   8.00000000000000E-03
      8.18640422919983E-06   1.35709805775927E-03   8.00000000000000E+00   5.32000000000000E+02   4.23000000000000E+00
      3.51000000000000E+00   7.84000000000000E+00   2.77150000000000E+02   2.47460000000000E+02   5.32450000000000E+02
      1.47000000000000E+00   1.22000000000000E+00   2.73000000000000E+00   9.86100000000000E+01   8.78800000000000E+01
      1.90520000000000E+02   7.37000000000000E+02   7.60000000000000E+01
      2.02500000000000E+00
      0.00000000000000E+00   0.00000000000000E+00   0.00000000000000E+00  -9.82177904669379E-16   4.29288100591379E-03
      1.76940709621982E-02   2.19869519681110E-02   5.49757591888284E-12  -1.90000000000000E+01  -1.90000000000000E+01
      0.00000000000000E+00   1.26709235263368E-11  -9.06159964770728E-03  -3.84219776323392E-02  -4.74835772673756E-02
     -3.12498679722566E-11   0.00000000000000E+00   0.00000000000000E+00   0.00000000000000E+00  -1.89441446010385E-13
     -6.52151575852306E-06  -5.54342564310097E-12  -6.52152149139015E-06   2.36560414232282E-11   1.00000000000000E+00
      1.00000000000000E+00   0.00000000000000E+00  -8.49112397489481E-16   4.44732715868390E-03   2.10558196620729E-02
      2.55031468207560E-02   5.49625063014559E-12   0.00000000000000E+00   2.00000000000000E+00   9.50000000000000E-03
      8.32176433113690E-06   1.47137556665786E-06   9.00000000000000E+00   5.41000000000000E+02   4.69000000000000E+00
      3.96000000000000E+00   8.76000000000000E+00   2.81840000000000E+02   2.51420000000000E+02   5.41210000000000E+02
      1.68000000000000E+00   1.44000000000000E+00   3.15000000000000E+00   1.00290000000000E+02   8.93200000000000E+01
      1.93670000000000E+02   7.37000000000000E+02   7.90000000000000E+01
      2.04500000000000E+00
      0.00000000000000E+00   0.00000000000000E+00   0.00000000000000E+00  -1.08504233386806E-15   4.21553117515883E-03
      1.76305419736879E-02   2.18460731488457E-02   5.49792518248454E-12  -1.82000000000000E+01  -1.82000000000000E+01
      0.00000000000000E+00   1.27966235131884E-11  -9.05749045407049E-03  -3.83927865132697E-02  -4.74502769545435E-02
     -3.09910385522963E-11   0.00000000000000E+00   0.00000000000000E+00   0.00000000000000E+00  -1.95410746507897E-13
     -6.96874175807119E-06  -5.51630336402382E-12  -6.96874746978531E-06   2.33972027522104E-11   1.00000000000000E+00
      1.00000000000000E+00   0.00000000000000E+00  -7.30781062366569E-16   4.52090883202565E-03   2.10902637211427E-02
      2.56111725531676E-02   5.49591061760136E-12   0.00000000000000E+00   2.00000000000000E+00   2.00000000000000E-02
      1.81173714073099E-05   1.10052450717606E-06   8.00000000000000E+00   5.49000000000000E+02   4.24000000000000E+00
      3.52000000000000E+00   7.88000000000000E+00   2.86080000000000E+02   2.54940000000000E+02   5.49090000000000E+02
      1.50000000000000E+00   1.21000000000000E+00   2.75000000000000E+00   1.01790000000000E+02   9.05300000000000E+01
      1.96420000000000E+02   7.37000000000000E+02   9.30000000000000E+01
      2.05000000000000E+00
      0.00000000000000E+00   0.00000000000000E+00   0.00000000000000E+00  -1.20869117396626E-15   4.19022433298323E-03
      1.76116216092213E-02   2.18018459422033E-02   5.49802571022380E-12  -1.80000000000000E+01  -1.80000000000000E+01
      0.00000000000000E+00   1.28858800825166E-11  -9.05634892545339E-03  -3.83853733319241E-02  -4.74417222444916E-02
     -3.09260611522501E-11   0.00000000000000E+00   0.00000000000000E+00   0.00000000000000E+00  -1.99718623728241E-13
     -7.08463597281762E-06  -5.49866408370611E-12  -7.08464167120033E-06   2.33322182976988E-11   1.00000000000000E+00
      1.00000000000000E+00   0.00000000000000E+00  -5.98793918236584E-16   4.54521517405693E-03   2.11017457699032E-02
      2.56469609439595E-02   5.49581714432755E-12   0.00000000000000E+00   2.00000000000000E+00   5.00000000000000E-03
      2.10337436749515E-05   2.66930056641430E-04   5.00000000000000E+00   5.54000000000000E+02   2.82000000000000E+00
      2.28000000000000E+00   5.16000000000000E+00   2.88900000000000E+02   2.57220000000000E+02   5.54250000000000E+02
      1.02000000000000E+00   8.40000000000000E-01   1.88000000000000E+00   1.02810000000000E+02   9.13700000000000E+01
      1.98300000000000E+02   7.37000000000000E+02   9.30000000000000E+01
      2.07000000000000E+00
      0.00000000000000E+00   0.00000000000000E+00   0.00000000000000E+00  -1.40543194546843E-15   4.05185758221394E-03
      1.75170918290078E-02   2.15689494112203E-02   5.49850692600346E-12  -1.72000000000000E+01  -1.72000000000000E+01
      0.00000000000000E+00   1.29816165699745E-11  -9.05133275712021E-03  -3.83551399251709E-02  -4.74064726693095E-02
     -3.06652512963119E-11   0.00000000000000E+00   0.00000000000000E+00   0.00000000000000E+00  -2.05386234222901E-13
     -7.56471411846720E-06  -5.48053945810396E-12  -7.56471980439290E-06   2.30713551884234E-11   1.00000000000000E+00
      1.00000000000000E+00   0.00000000000000E+00  -4.01009346602769E-16   4.67948184703041E-03   2.11656061308636E-02
      2.58450879778936E-02   5.49538918188497E-12   0.00000000000000E+00   2.00000000000000E+00   2.00000000000000E-02
      6.73351627850631E-06   4.16581481585607E-05   8.00000000000000E+00   5.62000000000000E+02   4.23000000000000E+00
      3.58000000000000E+00   7.91000000000000E+00   2.93130000000000E+02   2.60800000000000E+02   5.62160000000000E+02
      1.55000000000000E+00   1.28000000000000E+00   2.89000000000000E+00   1.04360000000000E+02   9.26500000000000E+01
      2.01190000000000E+02   7.37000000000000E+02   8.30000000000000E+01
      2.07500000000000E+00
      0.00000000000000E+00   0.00000000000000E+00   0.00000000000000E+00  -1.67455610855010E-15   4.00461883790891E-03
      1.74870734664846E-02   2.14916923043918E-02   5.49865331668275E-12  -1.70000000000000E+01  -1.70000000000000E+01
      0.00000000000000E+00   1.31000831083211E-11  -9.04998010396281E-03  -3.83474375182624E-02  -4.73974176091251E-02
     -3.05998322148988E-11   0.00000000000000E+00   0.00000000000000E+00   0.00000000000000E+00  -2.10216089009408E-13
     -7.68879957072404E-06  -5.46416113557972E-12  -7.68880524510127E-06   2.30059153880400E-11   1.00000000000000E+00
      1.00000000000000E+00   0.00000000000000E+00  -1.36013724108026E-16   4.72571948684451E-03   2.11876946231340E-02
      2.59134141099784E-02   5.49526351017606E-12   0.00000000000000E+00   2.00000000000000E+00   5.00000000000000E-03
      3.36380222458098E-05   6.20709747495036E-04   7.00000000000000E+00   5.69000000000000E+02   3.76000000000000E+00
      3.07000000000000E+00   6.91000000000000E+00   2.96890000000000E+02   2.63870000000000E+02   5.69070000000000E+02
      1.33000000000000E+00   1.11000000000000E+00   2.46000000000000E+00   1.05690000000000E+02   9.37600000000000E+01
      2.03650000000000E+02   7.37000000000000E+02   8.30000000000000E+01
      2.09500000000000E+00
      0.00000000000000E+00   0.00000000000000E+00   0.00000000000000E+00  -2.09651058362234E-15   3.73729837085255E-03
      1.73276045732303E-02   2.10649029440807E-02   5.49939337157006E-12  -1.62000000000000E+01  -1.62000000000000E+01
      0.00000000000000E+00   1.32739439986840E-11  -9.04440631652964E-03  -3.83160984799662E-02  -4.73605047832219E-02
     -3.03370285678588E-11   0.00000000000000E+00   0.00000000000000E+00   0.00000000000000E+00  -2.16794985426489E-13
     -8.20113251743978E-06  -5.44252428213181E-12  -8.20113817675904E-06   2.27429920210732E-11   1.00000000000000E+00
      1.00000000000000E+00   0.00000000000000E+00   2.66972621419584E-16   4.98968331381962E-03   2.13141196634980E-02
      2.63038029773179E-02   5.49464317521560E-12   0.00000000000000E+00   2.00000000000000E+00   2.00000000000000E-02
      2.99595499206344E-05   5.36769735131847E-06   1.50000000000000E+01   5.84000000000000E+02   7.50000000000000E+00
      6.88000000000000E+00   1.45900000000000E+01   3.04390000000000E+02   2.70750000000000E+02   5.83660000000000E+02
      2.68000000000000E+00   2.40000000000000E+00   5.16000000000000E+00   1.08370000000000E+02   9.61600000000000E+01
      2.08810000000000E+02   7.37000000000000E+02   7.40000000000000E+01
      2.10000000000000E+00
      0.00000000000000E+00   0.00000000000000E+00   0.00000000000000E+00  -2.64243014949491E-15   3.64530719607894E-03
      1.72750967180443E-02   2.09204039141206E-02   5.49962687136414E-12  -1.60000000000000E+01  -1.60000000000000E+01
      0.00000000000000E+00   1.35455986305258E-11  -9.04304022725597E-03  -3.83081429287637E-02  -4.73511831424741E-02
     -3.02708440599386E-11   0.00000000000000E+00   0.00000000000000E+00   0.00000000000000E+00  -2.21927605933941E-13
     -8.33238630459174E-06  -5.41605922162589E-12  -8.33239194257857E-06   2.26767670493495E-11   1.00000000000000E+00
      1.00000000000000E+00   0.00000000000000E+00   7.84685389694915E-16   5.08114044945283E-03   2.13579711708424E-02
      2.64391116202960E-02   5.49445013922497E-12   0.00000000000000E+00   2.00000000000000E+00   5.00000000000000E-03
      1.51271773254995E-05   2.39761873579836E-05   5.00000000000000E+00   5.89000000000000E+02   2.78000000000000E+00
      2.24000000000000E+00   5.07000000000000E+00   3.07170000000000E+02   2.72990000000000E+02   5.88730000000000E+02
      1.00000000000000E+00   8.50000000000000E-01   1.87000000000000E+00   1.09370000000000E+02   9.70100000000000E+01
      2.10680000000000E+02   7.37000000000000E+02   8.40000000000000E+01
      2.11000000000000E+00
      0.00000000000000E+00   0.00000000000000E+00   0.00000000000000E+00  -3.09610819909800E-15   3.41948101935832E-03
      1.71494447756104E-02   2.05689257949656E-02   5.50016520903140E-12  -1.56000000000000E+01  -1.56000000000000E+01
      0.00000000000000E+00   1.38454254935904E-11  -9.04046439944948E-03  -3.82924590495633E-02  -4.73329234351674E-02
     -3.01374378789938E-11   0.00000000000000E+00   0.00000000000000E+00   0.00000000000000E+00  -2.26266884936740E-13
     -8.59843707765873E-06  -5.39028515297343E-12  -8.59844269421077E-06   2.25432724476157E-11   1.00000000000000E+00
      1.00000000000000E+00   0.00000000000000E+00   1.20777180034038E-15   5.30656463333677E-03   2.14660314495580E-02
      2.67725960828960E-02   5.49400022234679E-12   1.00000000000000E+00   3.00000000000000E+00   1.00000000000000E-02
      7.95115108000426E-06   2.48657093751776E-05   9.00000000000000E+00   6.09000000000000E+02   4.70000000000000E+00
      3.95000000000000E+00   8.75000000000000E+00   3.17540000000000E+02   2.83040000000000E+02   6.09410000000000E+02
      1.70000000000000E+00   1.43000000000000E+00   3.15000000000000E+00   1.13090000000000E+02   1.00500000000000E+02
      2.17970000000000E+02   7.37000000000000E+02   7.00000000000000E+01
      2.12500000000000E+00
      0.00000000000000E+00   0.00000000000000E+00   0.00000000000000E+00  -4.04202787435997E-15   2.95031322330983E-03
      1.68977438022500E-02   1.98480570255557E-02   5.50116377876581E-12  -1.50000000000000E+01  -1.50000000000000E+01
      0.00000000000000E+00   1.45202751342101E-11  -9.03736864161702E-03  -3.82708147547224E-02  -4.73081833818191E-02
     -2.99336328746025E-11   0.00000000000000E+00   0.00000000000000E+00   0.00000000000000E+00  -2.32682858804707E-13
     -9.00874667800696E-06  -5.34119193989951E-12  -9.00875225188176E-06   2.23393444595753E-11   1.00000000000000E+00
      1.00000000000000E+00   0.00000000000000E+00   2.06307960092912E-15   5.77772625191963E-03   2.16914088565935E-02
      2.74691351085152E-02   5.49312463626140E-12   0.00000000000000E+00   3.00000000000000E+00   1.50000000000000E-02
      9.55952297887415E-06   9.32362021901201E-06   1.70000000000000E+01   6.26000000000000E+02   8.49000000000000E+00
      7.41000000000000E+00   1.61200000000000E+01   3.26030000000000E+02   2.90450000000000E+02   6.25530000000000E+02
      2.98000000000000E+00   2.53000000000000E+00   5.59000000000000E+00   1.16070000000000E+02   1.03030000000000E+02
      2.23560000000000E+02   7.37000000000000E+02   6.70000000000000E+01
      2.14500000000000E+00
      0.00000000000000E+00   0.00000000000000E+00   0.00000000000000E+00  -4.76552307355597E-15   2.20826914069417E-03
      1.65005092810678E-02   1.87087784217572E-02   5.50269330160646E-12  -1.42000000000000E+01  -1.42000000000000E+01
      0.00000000000000E+00   1.49861029067442E-11  -9.03586510149076E-03  -3.82395299377859E-02  -4.72753950242905E-02
     -2.96579457183091E-11   0.00000000000000E+00   0.00000000000000E+00   0.00000000000000E+00  -2.46694945744336E-13
     -9.58361535454541E-06  -5.28882889173407E-12  -9.58362089006925E-06   2.20634782071274E-11   1.00000000000000E+00
      1.00000000000000E+00   0.00000000000000E+00   2.60493456761356E-15   6.52788969930553E-03   2.20483105241152E-02
      2.85762002234233E-02   5.49177420957527E-12   0.00000000000000E+00   3.00000000000000E+00   2.00000000000000E-02
      8.10471560979094E-06   2.35105593553276E-06   8.00000000000000E+00   6.34000000000000E+02   4.25000000000000E+00
      3.70000000000000E+00   8.06000000000000E+00   3.30280000000000E+02   2.94150000000000E+02   6.33590000000000E+02
      1.52000000000000E+00   1.28000000000000E+00   2.84000000000000E+00   1.17590000000000E+02   1.04310000000000E+02
      2.26400000000000E+02   7.37000000000000E+02   6.00000000000000E+01
      2.15000000000000E+00
      0.00000000000000E+00   0.00000000000000E+00   0.00000000000000E+00  -4.82017050362705E-15   2.02430531657015E-03
      1.64006777147873E-02   1.84249830313526E-02   5.50307883505137E-12  -1.40000000000000E+01  -1.40000000000000E+01
      0.00000000000000E+00   1.52573828730958E-11  -9.03609592706672E-03  -3.82308200402716E-02  -4.72669159520809E-02
     -2.95885608421375E-11   0.00000000000000E+00   0.00000000000000E+00   0.00000000000000E+00  -2.58306848851756E-13
     -9.73312984305996E-06  -5.25336861402153E-12  -9.73313535473542E-06   2.19940439300035E-11   1.00000000000000E+00
      1.00000000000000E+00   0.00000000000000E+00   2.55371405088860E-15   6.71480760633142E-03   2.21368584497490E-02
      2.88516660560830E-02   5.49143807708261E-12   0.00000000000000E+00   3.00000000000000E+00   5.00000000000000E-03
      9.60512841630339E-06   1.22647646949832E-05   8.00000000000000E+00   6.42000000000000E+02   4.24000000000000E+00
      3.33000000000000E+00   7.68000000000000E+00   3.34520000000000E+02   2.97480000000000E+02   6.41270000000000E+02
      1.48000000000000E+00   1.15000000000000E+00   2.68000000000000E+00   1.19070000000000E+02   1.05460000000000E+02
      2.29080000000000E+02   7.37000000000000E+02   6.30000000000000E+01
      2.17000000000000E+00
      0.00000000000000E+00   0.00000000000000E+00   0.00000000000000E+00  -4.45689349489575E-15   1.36771747623594E-03
      1.60354549976701E-02   1.74031724739016E-02   5.50452313597042E-12  -1.32000000000000E+01  -1.32000000000000E+01
      0.00000000000000E+00   1.57721087139745E-11  -9.04043117810221E-03  -3.81931447318677E-02  -4.72335758941978E-02
     -2.93092294072213E-11   0.00000000000000E+00   0.00000000000000E+00   0.00000000000000E+00  -2.74985618626711E-13
     -1.03570320065337E-05  -5.19876970844199E-12  -1.03570374802891E-05   2.17144954582780E-11   1.00000000000000E+00
      1.00000000000000E+00   0.00000000000000E+00   2.17113192415959E-15   7.38679136833043E-03   2.24539690894439E-02
      2.98407604577765E-02   5.49021081297296E-12   0.00000000000000E+00   3.00000000000000E+00   2.00000000000000E-02
      9.27994604368714E-06   3.13677278043965E-07   1.60000000000000E+01   6.58000000000000E+02   8.00000000000000E+00
      7.26000000000000E+00   1.54700000000000E+01   3.42520000000000E+02   3.04740000000000E+02   6.56740000000000E+02
      2.93000000000000E+00   2.56000000000000E+00   5.54000000000000E+00   1.22000000000000E+02   1.08020000000000E+02
      2.34620000000000E+02   7.37000000000000E+02   5.90000000000000E+01
      2.17500000000000E+00
      0.00000000000000E+00   0.00000000000000E+00   0.00000000000000E+00  -3.87496628077320E-15   1.23196301654423E-03
      1.59571644039311E-02   1.71891274204715E-02   5.50484747137032E-12  -1.30000000000000E+01  -1.30000000000000E+01
      0.00000000000000E+00   1.65694876291876E-11  -9.04268240537037E-03  -3.81833843741739E-02  -4.72260667629748E-02
     -2.92387879734680E-11   0.00000000000000E+00   0.00000000000000E+00   0.00000000000000E+00  -2.90108434407102E-13
     -1.05191569342755E-05  -5.13498880193318E-12  -1.05191623593728E-05   2.16439941156649E-11   1.00000000000000E+00
      1.00000000000000E+00   0.00000000000000E+00   1.65011494089799E-15   7.52738439535680E-03   2.25200741095043E-02
      3.00474585048627E-02   5.48994638643282E-12   0.00000000000000E+00   3.00000000000000E+00   5.00000000000000E-03
      8.96346104935314E-05   1.47680937568530E-03   6.00000000000000E+00   6.64000000000000E+02   3.29000000000000E+00
      2.68000000000000E+00   6.04000000000000E+00   3.45810000000000E+02   3.07420000000000E+02   6.62780000000000E+02
      1.18000000000000E+00   9.80000000000000E-01   2.20000000000000E+00   1.23180000000000E+02   1.09000000000000E+02
      2.36820000000000E+02   7.37000000000000E+02   6.50000000000000E+01
      2.19500000000000E+00
      0.00000000000000E+00   0.00000000000000E+00   0.00000000000000E+00  -3.21224306076508E-15   8.10213254025187E-04
      1.57017101118657E-02   1.65119233658876E-02   5.50598933139382E-12  -1.22000000000000E+01  -1.22000000000000E+01
      0.00000000000000E+00   1.76645901121807E-11  -9.06014041233040E-03  -3.81460031680188E-02  -4.72061435626846E-02
     -2.89553037609208E-11   0.00000000000000E+00   0.00000000000000E+00   0.00000000000000E+00  -3.14114099881298E-13
     -1.12040782767614E-05  -5.05045521795033E-12  -1.12040836413308E-05   2.13602504801981E-11   1.00000000000000E+00
      1.00000000000000E+00   0.00000000000000E+00   1.11604181526123E-15   7.97535530421048E-03   2.27300689762267E-02
      3.07054242804383E-02   5.48906394932893E-12   0.00000000000000E+00   3.00000000000000E+00   2.00000000000000E-02
      1.00129017647732E-05   2.21573383928002E-08   1.20000000000000E+01   6.76000000000000E+02   6.14000000000000E+00
      5.48000000000000E+00   1.17900000000000E+01   3.51950000000000E+02   3.12900000000000E+02   6.74570000000000E+02
      2.18000000000000E+00   1.93000000000000E+00   4.18000000000000E+00   1.25360000000000E+02   1.10930000000000E+02
      2.41000000000000E+02   7.37000000000000E+02   6.30000000000000E+01
      2.20000000000000E+00
      0.00000000000000E+00   0.00000000000000E+00   0.00000000000000E+00  -2.67982549891329E-15   7.27951321830114E-04
      1.56493680875500E-02   1.63773194093774E-02   5.50623903160932E-12  -1.20000000000000E+01  -1.20000000000000E+01
      0.00000000000000E+00   1.89743513710750E-11  -9.06778341199936E-03  -3.81381674587932E-02  -4.72059508518182E-02
     -2.88833759166952E-11   0.00000000000000E+00   0.00000000000000E+00   0.00000000000000E+00  -3.34153106821952E-13
     -1.13858265758304E-05  -4.96126664446392E-12  -1.13858318712501E-05   2.12882624537013E-11   1.00000000000000E+00
      1.00000000000000E+00   0.00000000000000E+00   7.40012817835536E-16   8.06707800346849E-03   2.27729392708429E-02
      3.08400172743121E-02   5.48887443138458E-12   0.00000000000000E+00   3.00000000000000E+00   5.00000000000000E-03
      1.02902412774363E-05   6.08886803576933E-04   1.40000000000000E+01   6.90000000000000E+02   7.10000000000000E+00
      6.28000000000000E+00   1.35300000000000E+01   3.59050000000000E+02   3.19180000000000E+02   6.88100000000000E+02
      2.53000000000000E+00   2.25000000000000E+00   4.83000000000000E+00   1.27890000000000E+02   1.13180000000000E+02
      2.45830000000000E+02   7.37000000000000E+02   6.10000000000000E+01
      2.20500000000000E+00
      0.00000000000000E+00   0.00000000000000E+00   0.00000000000000E+00  -2.49840128464090E-15   6.53164475478742E-04
      1.56009943967482E-02   1.62541588722244E-02   5.50647351676857E-12  -1.18000000000000E+01  -1.18000000000000E+01
      0.00000000000000E+00   1.94859169999101E-11  -9.07742831189731E-03  -3.81314663846542E-02  -4.72088946770656E-02
     -2.88107534928835E-11   0.00000000000000E+00   0.00000000000000E+00   0.00000000000000E+00  -3.45879699731121E-13
     -1.15726647482707E-05  -4.91542567947083E-12  -1.15726700095760E-05   2.12155864422715E-11   1.00000000000000E+00
      1.00000000000000E+00   0.00000000000000E+00   6.35710571236973E-16   8.15317101362070E-03   2.28131374612295E-02
      3.09663084748508E-02   5.48869353384346E-12   2.00000000000000E+00   5.00000000000000E+00   5.00000000000000E-03
      9.99805549994653E-06   2.08573769109562E-07   2.30000000000000E+01   7.19000000000000E+02   1.13300000000000E+01
      1.03200000000000E+01   2.19800000000000E+01   3.74050000000000E+02   3.33210000000000E+02   7.17530000000000E+02
      4.04000000000000E+00   3.56000000000000E+00   7.71000000000000E+00   1.33230000000000E+02   1.18110000000000E+02
      2.56250000000000E+02   7.40000000000000E+02   5.70000000000000E+01
      2.21500000000000E+00
      0.00000000000000E+00   0.00000000000000E+00   0.00000000000000E+00  -2.17082258604110E-15   5.31078475904934E-04
      1.55182106965168E-02   1.60492891724196E-02   5.50690149061570E-12  -1.14000000000000E+01  -1.14000000000000E+01
      0.00000000000000E+00   2.00609653465062E-11  -9.10457955877294E-03  -3.81216861274870E-02  -4.72262656661990E-02
     -2.86641644302011E-11   0.00000000000000E+00   0.00000000000000E+00   0.00000000000000E+00  -3.62928700907272E-13
     -1.19622755004516E-05  -4.85553722860422E-12  -1.19622807189175E-05   2.10688999186375E-11   1.00000000000000E+00