DF-ISE text

Info {
  version   = 1.0
  type      = xyplot
  datasets  = [
    "time"
    "Source OuterVoltage" "Source InnerVoltage" "Source QuasiFermiPotential" "Source DisplacementCurrent" "Source eCurrent"
    "Source hCurrent" "Source TotalCurrent" "Source Charge" "Gate OuterVoltage" "Gate InnerVoltage"
    "Gate QuasiFermiPotential" "Gate DisplacementCurrent" "Gate eCurrent" "Gate hCurrent" "Gate TotalCurrent"
    "Gate Charge" "Body OuterVoltage" "Body InnerVoltage" "Body QuasiFermiPotential" "Body DisplacementCurrent"
    "Body eCurrent" "Body hCurrent" "Body TotalCurrent" "Body Charge" "Drain OuterVoltage"
    "Drain InnerVoltage" "Drain QuasiFermiPotential" "Drain DisplacementCurrent" "Drain eCurrent" "Drain hCurrent"
    "Drain TotalCurrent" "Drain Charge" "SimStats Restarts" "SimStats CumulativeRestarts" "SimStats Stepsize"
    "SimStats Rhs" "SimStats error" "SimStats Iterations" "SimStats CumulativeIterations" "SimStats AssemblyTime"
    "SimStats SolveTime" "SimStats TotalTime" "SimStats CumulativeAssemblyTime" "SimStats CumulativeSolveTime" "SimStats CumulativeTotalTime"
    "SimStats AssemblyTime_wall" "SimStats SolveTime_wall" "SimStats TotalTime_wall" "SimStats CumulativeAssemblyTime_wall" "SimStats CumulativeSolveTime_wall"
    "SimStats CumulativeTotalTime_wall" "SimStats PeakMemory" "SimStats AverageMemory" ]
  functions = [
    Time
    OuterVoltage InnerVoltage QuasiFermiPotential DisplacementCurrent eCurrent
    hCurrent TotalCurrent Charge OuterVoltage InnerVoltage
    QuasiFermiPotential DisplacementCurrent eCurrent hCurrent TotalCurrent
    Charge OuterVoltage InnerVoltage QuasiFermiPotential DisplacementCurrent
    eCurrent hCurrent TotalCurrent Charge OuterVoltage
    InnerVoltage QuasiFermiPotential DisplacementCurrent eCurrent hCurrent
    TotalCurrent Charge Restarts CumulativeRestarts Stepsize
    Rhs error Iterations CumulativeIterations AssemblyTime
    SolveTime TotalTime CumulativeAssemblyTime CumulativeSolveTime CumulativeTotalTime
    AssemblyTime_wall SolveTime_wall TotalTime_wall CumulativeAssemblyTime_wall CumulativeSolveTime_wall
    CumulativeTotalTime_wall PeakMemory AverageMemory ]
}

Data {
      4.00100000000000E+00
      0.00000000000000E+00   0.00000000000000E+00   0.00000000000000E+00  -2.35157541562617E-15   4.05470619700070E-03
      4.97865552253306E-03   9.03336171953141E-03   5.67669576815092E-12  -1.99600000000000E+01  -1.99600000000000E+01
      0.00000000000000E+00   1.44489560904171E-11  -9.08078946686792E-03  -2.53185916506426E-02  -3.43993811030616E-02
     -3.04863804463653E-11   0.00000000000000E+00   0.00000000000000E+00   0.00000000000000E+00  -2.36410080384235E-12
     -6.11343248993030E-06  -1.62901826761872E-12  -6.11343648304937E-06   2.27099381024408E-11   1.00000000000000E+00
      1.00000000000000E+00   0.00000000000000E+00  -1.63232713501216E-15   4.36960770658033E-03   2.10025251134345E-02
      2.53721328200132E-02   5.49974657577360E-12   0.00000000000000E+00   4.40000000000000E+01   1.00000000000000E-03
      8.65831763714353E-06   3.24450347963540E-05   9.00000000000000E+00   2.28700000000000E+03   4.71000000000000E+00
      4.03000000000000E+00   8.84000000000000E+00   1.20410000000000E+03   1.18746000000000E+03   2.42221000000000E+03
      1.70000000000000E+00   1.52000000000000E+00   3.26000000000000E+00   4.29760000000000E+02   4.20730000000000E+02
      8.62810000000000E+02   9.19000000000000E+02   1.31000000000000E+02
      4.00300000000000E+00
      0.00000000000000E+00   0.00000000000000E+00   0.00000000000000E+00  -1.42062148397358E-15   4.04695096900956E-03
      4.97056052954229E-03   9.01751149855043E-03   5.67673726096546E-12  -1.98800000000000E+01  -1.98800000000000E+01
      0.00000000000000E+00   1.50072104394540E-11  -9.08063627065209E-03  -2.53143659935272E-02  -3.43950022491720E-02
     -3.04622041215824E-11   0.00000000000000E+00   0.00000000000000E+00   0.00000000000000E+00  -5.82288602535720E-13
     -6.16397484803293E-06  -4.79693741403409E-12  -6.16398022725895E-06   2.26857587849822E-11   1.00000000000000E+00
      1.00000000000000E+00   0.00000000000000E+00  -8.94927273797567E-16   4.37746399391365E-03   2.10061907369361E-02
      2.53836547308489E-02   5.49970807563472E-12   0.00000000000000E+00   4.40000000000000E+01   2.00000000000000E-03
      8.35859361033908E-06   5.26910017585163E-05   4.00000000000000E+00   2.29100000000000E+03   2.35000000000000E+00
      1.67000000000000E+00   4.06000000000000E+00   1.20645000000000E+03   1.18913000000000E+03   2.42627000000000E+03
      8.50000000000000E-01   6.20000000000000E-01   1.48000000000000E+00   4.30610000000000E+02   4.21350000000000E+02
      8.64290000000000E+02   9.19000000000000E+02   1.42000000000000E+02
      4.00700000000000E+00
      0.00000000000000E+00   0.00000000000000E+00   0.00000000000000E+00  -1.25589202329683E-15   4.03062091131325E-03
      4.95382703276429E-03   8.98444794407628E-03   5.67684247258250E-12  -1.97200000000000E+01  -1.97200000000000E+01
      0.00000000000000E+00   1.51999332302322E-11  -9.08031816493586E-03  -2.53058426309604E-02  -3.43861607806963E-02
     -3.04132297893836E-11   0.00000000000000E+00   0.00000000000000E+00   0.00000000000000E+00  -2.22083646825450E-13
     -6.24839197394770E-06  -5.43244493753847E-12  -6.24839762847628E-06   2.26367510606115E-11   1.00000000000000E+00
      1.00000000000000E+00   0.00000000000000E+00  -7.22380545081909E-16   4.39401535887566E-03   2.10139458753736E-02
      2.54079612342485E-02   5.49963625618962E-12   0.00000000000000E+00   4.40000000000000E+01   4.00000000000000E-03
      9.20132985905010E-06   1.36025415556734E-07   4.00000000000000E+00   2.29500000000000E+03   2.34000000000000E+00
      1.64000000000000E+00   4.03000000000000E+00   1.20879000000000E+03   1.19077000000000E+03   2.43030000000000E+03
      8.30000000000000E-01   5.50000000000000E-01   1.39000000000000E+00   4.31440000000000E+02   4.21900000000000E+02
      8.65680000000000E+02   9.19000000000000E+02   1.31000000000000E+02
      4.01500000000000E+00
      0.00000000000000E+00   0.00000000000000E+00   0.00000000000000E+00  -1.29435536688965E-15   3.99439261065656E-03
      4.91791079561596E-03   8.91230340627122E-03   5.67707824146983E-12  -1.94000000000000E+01  -1.94000000000000E+01
      0.00000000000000E+00   1.53917295688988E-11  -9.07964320379579E-03  -2.52883896419693E-02  -3.43680328303734E-02
     -3.03148744735173E-11   0.00000000000000E+00   0.00000000000000E+00   0.00000000000000E+00  -1.87736123402441E-13
     -6.41661549020630E-06  -5.48217637835213E-12  -6.41662116011881E-06   2.25383078370142E-11   1.00000000000000E+00
      1.00000000000000E+00   0.00000000000000E+00  -6.51652717287371E-16   4.43085090917874E-03   2.10312951360842E-02
      2.54621460452623E-02   5.49948839503338E-12   0.00000000000000E+00   4.40000000000000E+01   8.00000000000000E-03
      9.29391618247680E-06   1.40158102332857E-07   6.00000000000000E+00   2.30100000000000E+03   3.27000000000000E+00
      2.60000000000000E+00   5.95000000000000E+00   1.21206000000000E+03   1.19337000000000E+03   2.43625000000000E+03
      1.16000000000000E+00   9.10000000000000E-01   2.09000000000000E+00   4.32600000000000E+02   4.22810000000000E+02
      8.67770000000000E+02   9.19000000000000E+02   1.22000000000000E+02
      4.03100000000000E+00
      0.00000000000000E+00   0.00000000000000E+00   0.00000000000000E+00  -1.43891131624722E-15   3.90450580570741E-03
      4.83376113185873E-03   8.73826693756471E-03   5.67766041139263E-12  -1.87600000000000E+01  -1.87600000000000E+01
      0.00000000000000E+00   1.57399627149129E-11  -9.07811672518340E-03  -2.52510783368021E-02  -3.43291950462455E-02
     -3.01172114125991E-11   0.00000000000000E+00   0.00000000000000E+00   0.00000000000000E+00  -1.90597544818062E-13
     -6.76477848413480E-06  -5.45867731318448E-12  -6.76478413340966E-06   2.23403850248582E-11   1.00000000000000E+00
      1.00000000000000E+00   0.00000000000000E+00  -5.20973779613771E-16   4.52278445482532E-03   2.10749084379894E-02
      2.55976928928142E-02   5.49916597634829E-12   0.00000000000000E+00   4.40000000000000E+01   1.60000000000000E-02
      9.96953377466144E-06   4.06790877305718E-07   6.00000000000000E+00   2.30700000000000E+03   3.29000000000000E+00
      2.66000000000000E+00   6.02000000000000E+00   1.21535000000000E+03   1.19603000000000E+03   2.44227000000000E+03
      1.16000000000000E+00   9.20000000000000E-01   2.10000000000000E+00   4.33760000000000E+02   4.23730000000000E+02
      8.69870000000000E+02   9.19000000000000E+02   1.21000000000000E+02
      4.05100000000000E+00
      0.00000000000000E+00   0.00000000000000E+00   0.00000000000000E+00  -1.73856317688773E-15   3.74879213400944E-03
      4.69696793124042E-03   8.44576006524812E-03   5.67867353396783E-12  -1.79600000000000E+01  -1.79600000000000E+01
      0.00000000000000E+00   1.62290030816064E-11  -9.07579128286917E-03  -2.51974162449998E-02  -3.42732075116399E-02
     -2.98687199218803E-11   0.00000000000000E+00   0.00000000000000E+00   0.00000000000000E+00  -1.97351742836446E-13
     -7.22297434065973E-06  -5.42621014590567E-12  -7.22297996422162E-06   2.20913501300683E-11   1.00000000000000E+00
      1.00000000000000E+00   0.00000000000000E+00  -2.73928408720706E-16   4.68319999541363E-03   2.11514704309427E-02
      2.58346704263560E-02   5.49869625784423E-12   0.00000000000000E+00   4.40000000000000E+01   2.00000000000000E-02
      9.68060659443556E-06   7.74383010071047E-05   6.00000000000000E+00   2.31300000000000E+03   3.30000000000000E+00
      2.73000000000000E+00   6.10000000000000E+00   1.21865000000000E+03   1.19876000000000E+03   2.44837000000000E+03
      1.19000000000000E+00   9.20000000000000E-01   2.14000000000000E+00   4.34950000000000E+02   4.24650000000000E+02
      8.72010000000000E+02   9.19000000000000E+02   1.21000000000000E+02
      4.07100000000000E+00
      0.00000000000000E+00   0.00000000000000E+00   0.00000000000000E+00  -2.21874234407162E-15   3.52616226402204E-03
      4.50965235110822E-03   8.03581461512804E-03   5.68014929485287E-12  -1.71600000000000E+01  -1.71600000000000E+01
      0.00000000000000E+00   1.67186768103209E-11  -9.07284013656264E-03  -2.51313172950230E-02  -3.42041574148670E-02
     -2.96184830043739E-11   0.00000000000000E+00   0.00000000000000E+00   0.00000000000000E+00  -2.05209188362495E-13
     -7.70653044718709E-06  -5.39415114319541E-12  -7.70653604654742E-06   2.18402111528227E-11   1.00000000000000E+00
      1.00000000000000E+00   0.00000000000000E+00   9.56390511350785E-17   4.91406548233272E-03   2.12619838534526E-02
      2.61760493357855E-02   5.49812255669833E-12   0.00000000000000E+00   4.40000000000000E+01   2.00000000000000E-02
      9.31542390602098E-06   7.61983693337413E-07   6.00000000000000E+00   2.31900000000000E+03   3.28000000000000E+00
      2.71000000000000E+00   6.08000000000000E+00   1.22193000000000E+03   1.20147000000000E+03   2.45445000000000E+03
      1.16000000000000E+00   9.50000000000000E-01   2.13000000000000E+00   4.36110000000000E+02   4.25600000000000E+02
      8.74140000000000E+02   9.19000000000000E+02   1.21000000000000E+02
      4.09100000000000E+00
      0.00000000000000E+00   0.00000000000000E+00   0.00000000000000E+00  -2.99071549242813E-15   3.19905419791360E-03
      4.24118240374216E-03   7.44023660165277E-03   5.68238227179342E-12  -1.63600000000000E+01  -1.63600000000000E+01
      0.00000000000000E+00   1.72637411513439E-11  -9.06898330893221E-03  -2.50441937714449E-02  -3.41131770631133E-02
     -2.93636502384103E-11   0.00000000000000E+00   0.00000000000000E+00   0.00000000000000E+00  -2.13492944482372E-13
     -8.21480802234796E-06  -5.35408103557413E-12  -8.21481358992194E-06   2.15838845778171E-11   1.00000000000000E+00
      1.00000000000000E+00   0.00000000000000E+00   6.57315851445328E-16   5.25558641860938E-03   2.14255688564405E-02
      2.66811552750505E-02   5.49738338879981E-12   0.00000000000000E+00   4.40000000000000E+01   2.00000000000000E-02
      8.99734256884932E-06   8.60501015441049E-06   8.00000000000000E+00   2.32700000000000E+03   4.23000000000000E+00
      3.64000000000000E+00   7.96000000000000E+00   1.22616000000000E+03   1.20511000000000E+03   2.46241000000000E+03
      1.48000000000000E+00   1.25000000000000E+00   2.78000000000000E+00   4.37590000000000E+02   4.26850000000000E+02
      8.76920000000000E+02   9.19000000000000E+02   1.16000000000000E+02
      4.11100000000000E+00
      0.00000000000000E+00   0.00000000000000E+00   0.00000000000000E+00  -4.43106462607524E-15   2.68749609627891E-03
      3.82004465903695E-03   6.50754075531143E-03   5.68608253524255E-12  -1.55600000000000E+01  -1.55600000000000E+01
      0.00000000000000E+00   1.80257195055975E-11  -9.06376674676090E-03  -2.49124629184442E-02  -3.39762296471794E-02
     -2.90975656528069E-11   0.00000000000000E+00   0.00000000000000E+00   0.00000000000000E+00  -2.21369069410182E-13
     -8.74220969243811E-06  -5.29064488409575E-12  -8.74221520445206E-06   2.13151366146095E-11   1.00000000000000E+00
      1.00000000000000E+00   0.00000000000000E+00   1.63287841355851E-15   5.79421895222722E-03   2.16832121548436E-02
      2.74774311070724E-02   5.49634650295486E-12   0.00000000000000E+00   4.40000000000000E+01   2.00000000000000E-02
      8.97016967929880E-06   1.17133085175490E-04   1.20000000000000E+01   2.33900000000000E+03   6.13000000000000E+00
      5.44000000000000E+00   1.17200000000000E+01   1.23229000000000E+03   1.21055000000000E+03   2.47413000000000E+03
      2.19000000000000E+00   1.89000000000000E+00   4.15000000000000E+00   4.39780000000000E+02   4.28740000000000E+02
      8.81070000000000E+02   9.19000000000000E+02   1.12000000000000E+02
      4.11350000000000E+00
      0.00000000000000E+00   0.00000000000000E+00   0.00000000000000E+00  -5.65145837213004E-15   2.60560752642391E-03
      3.75095681899827E-03   6.35656434541652E-03   5.68670822921937E-12  -1.54600000000000E+01  -1.54600000000000E+01
      0.00000000000000E+00   1.82151444858981E-11  -9.06300573266883E-03  -2.48902459437236E-02  -3.39532516581773E-02
     -2.90635596200833E-11   0.00000000000000E+00   0.00000000000000E+00   0.00000000000000E+00  -2.26273236494024E-13
     -8.80966088369558E-06  -5.26625391740787E-12  -8.80966637622273E-06   2.12806639332334E-11   1.00000000000000E+00
      1.00000000000000E+00   0.00000000000000E+00   2.37323513243080E-15   5.88090447479486E-03   2.17245925043397E-02
      2.76054969791370E-02   5.49618745763054E-12   3.00000000000000E+00   4.70000000000000E+01   2.50000000000000E-03
      9.86068412625146E-06   3.97184935154141E-07   1.60000000000000E+01   2.37300000000000E+03   8.01000000000000E+00
      6.75000000000000E+00   1.49500000000000E+01   1.25015000000000E+03   1.22732000000000E+03   2.50920000000000E+03
      2.84000000000000E+00   2.28000000000000E+00   5.18000000000000E+00   4.46120000000000E+02   4.34660000000000E+02
      8.93460000000000E+02   9.19000000000000E+02   1.06000000000000E+02
      4.11850000000000E+00
      0.00000000000000E+00   0.00000000000000E+00   0.00000000000000E+00  -6.20335213842498E-15   2.42668081862542E-03
      3.59769512369590E-03   6.02437594231512E-03   5.68811294667703E-12  -1.52600000000000E+01  -1.52600000000000E+01
      0.00000000000000E+00   1.82203170581883E-11  -9.06141252979572E-03  -2.48399306264918E-02  -3.39013431380672E-02
     -2.89949680678478E-11   0.00000000000000E+00   0.00000000000000E+00   0.00000000000000E+00  -2.30749003291520E-13
     -8.94595773069899E-06  -5.25547095668493E-12  -8.94596321691895E-06   2.12110109885734E-11   1.00000000000000E+00
      1.00000000000000E+00   0.00000000000000E+00   2.68044071885843E-15   6.07077617149385E-03   2.18151369874724E-02
      2.78859131589690E-02   5.49584413259740E-12   0.00000000000000E+00   4.70000000000000E+01   5.00000000000000E-03
      9.88747451966287E-06   1.61809214605975E-08   6.00000000000000E+00   2.37900000000000E+03   3.41000000000000E+00
      2.51000000000000E+00   6.00000000000000E+00   1.25356000000000E+03   1.22983000000000E+03   2.51520000000000E+03
      1.22000000000000E+00   8.70000000000000E-01   2.11000000000000E+00   4.47340000000000E+02   4.35530000000000E+02
      8.95570000000000E+02   9.19000000000000E+02   1.17000000000000E+02
      4.12850000000000E+00
      0.00000000000000E+00   0.00000000000000E+00   0.00000000000000E+00  -7.48483281826037E-15   2.00389565514988E-03
      3.21953634063043E-03   5.22343199577283E-03   5.69167087659194E-12  -1.48600000000000E+01  -1.48600000000000E+01
      0.00000000000000E+00   1.80830683387973E-11  -9.05800297296627E-03  -2.47081664974100E-02  -3.37661694522933E-02
     -2.88549941787422E-11   0.00000000000000E+00   0.00000000000000E+00   0.00000000000000E+00  -2.36925345682231E-13
     -9.22413385548363E-06  -5.24263221787978E-12  -9.22413933504120E-06   2.10682752744574E-11   1.00000000000000E+00
      1.00000000000000E+00   0.00000000000000E+00   3.33549961174096E-15   6.52212331811714E-03   2.20298382777350E-02
      2.85519615958555E-02   5.49504802769282E-12   0.00000000000000E+00   4.70000000000000E+01   1.00000000000000E-02
      9.51068531425799E-06   9.06046476710337E-09   5.00000000000000E+00   2.38400000000000E+03   2.85000000000000E+00
      2.21000000000000E+00   5.11000000000000E+00   1.25641000000000E+03   1.23204000000000E+03   2.52031000000000E+03
      9.90000000000000E-01   7.80000000000000E-01   1.78000000000000E+00   4.48330000000000E+02   4.36310000000000E+02
      8.97350000000000E+02   9.19000000000000E+02   1.21000000000000E+02
      4.14850000000000E+00
      0.00000000000000E+00   0.00000000000000E+00   0.00000000000000E+00  -9.61240833680235E-15   1.02832044913916E-03
      2.19707312153225E-03   3.22539357066180E-03   5.70186759866798E-12  -1.40600000000000E+01  -1.40600000000000E+01
      0.00000000000000E+00   1.67285522759485E-11  -9.05148198884673E-03  -2.42776643033389E-02  -3.33291462754570E-02
     -2.85617561363346E-11   0.00000000000000E+00   0.00000000000000E+00   0.00000000000000E+00  -2.52659160501660E-13
     -9.80819428540432E-06  -5.23441944777307E-12  -9.80819977248293E-06   2.07666725953156E-11   1.00000000000000E+00
      1.00000000000000E+00   0.00000000000000E+00   3.98848645767342E-15   7.58240878055030E-03   2.25311521240134E-02
      3.01135609045677E-02   5.49321594235101E-12   0.00000000000000E+00   4.70000000000000E+01   2.00000000000000E-02
      2.87569848663118E-05   1.06338345303184E-03   7.00000000000000E+00   2.39100000000000E+03   3.79000000000000E+00
      3.24000000000000E+00   7.10000000000000E+00   1.26020000000000E+03   1.23528000000000E+03   2.52741000000000E+03
      1.32000000000000E+00   1.14000000000000E+00   2.48000000000000E+00   4.49650000000000E+02   4.37450000000000E+02
      8.99830000000000E+02   9.19000000000000E+02   1.15000000000000E+02
      4.16850000000000E+00
      0.00000000000000E+00   0.00000000000000E+00   0.00000000000000E+00  -8.06039440691121E-15   4.03426139850026E-04
      1.27345624980619E-03   1.67688238964815E-03   5.71168380434267E-12  -1.32600000000000E+01  -1.32600000000000E+01
      0.00000000000000E+00   1.38062902019347E-11  -9.04693141376945E-03  -2.37683500609350E-02  -3.28152814608982E-02
     -2.82605721507330E-11   0.00000000000000E+00   0.00000000000000E+00   0.00000000000000E+00  -2.80318672191512E-13
     -1.04380038676900E-05  -5.22681340446106E-12  -1.04380093748221E-05   2.04569575372670E-11   1.00000000000000E+00
      1.00000000000000E+00   0.00000000000000E+00   2.26087626958433E-15   8.28710200088640E-03   2.28617350797362E-02
      3.11488370806249E-02   5.49193080912339E-12   0.00000000000000E+00   4.70000000000000E+01   2.00000000000000E-02
      2.31442683742484E-05   5.11127554380031E-04   6.00000000000000E+00   2.39700000000000E+03   3.29000000000000E+00
      2.71000000000000E+00   6.07000000000000E+00   1.26349000000000E+03   1.23799000000000E+03   2.53348000000000E+03
      1.13000000000000E+00   9.30000000000000E-01   2.11000000000000E+00   4.50780000000000E+02   4.38380000000000E+02
      9.01940000000000E+02   9.19000000000000E+02   1.17000000000000E+02
      4.18850000000000E+00
      0.00000000000000E+00   0.00000000000000E+00   0.00000000000000E+00  -3.24367781891017E-15   2.33998316870895E-04
      9.07469499691710E-04   1.14146781655936E-03   5.71557926928149E-12  -1.24600000000000E+01  -1.24600000000000E+01
      0.00000000000000E+00   1.26409543862749E-11  -9.04346400819944E-03  -2.35259630217696E-02  -3.25694270173281E-02
     -2.79726598960209E-11   0.00000000000000E+00   0.00000000000000E+00   0.00000000000000E+00  -3.13948027865577E-13
     -1.11230705225374E-05  -5.15663178053308E-12  -1.11230759931172E-05   2.01656566143356E-11   1.00000000000000E+00
      1.00000000000000E+00   0.00000000000000E+00  -4.66962307238798E-17   8.48533420671400E-03   2.29537480700479E-02
      3.14390822767618E-02   5.49142401240381E-12   0.00000000000000E+00   4.70000000000000E+01   2.00000000000000E-02
      7.03975004336457E-06   9.94606778994448E-09   1.40000000000000E+01   2.41100000000000E+03   7.06000000000000E+00
      6.48000000000000E+00   1.37100000000000E+01   1.27055000000000E+03   1.24447000000000E+03   2.54719000000000E+03
      2.56000000000000E+00   2.28000000000000E+00   4.90000000000000E+00   4.53340000000000E+02   4.40660000000000E+02
      9.06840000000000E+02   9.19000000000000E+02   1.08000000000000E+02
      4.20850000000000E+00
      0.00000000000000E+00   0.00000000000000E+00   0.00000000000000E+00  -1.01249995286453E-15   2.07796266192201E-04
      8.31798171277480E-04   1.03959443746867E-03   5.71621032161718E-12  -1.16600000000000E+01  -1.16600000000000E+01
      0.00000000000000E+00   1.36054271906656E-11  -9.04012820972893E-03  -2.34680299020016E-02  -3.25081580981251E-02
     -2.76888451879349E-11   0.00000000000000E+00   0.00000000000000E+00   0.00000000000000E+00  -3.53050951188844E-13
     -1.18853645951123E-05  -5.01995519479365E-12  -1.18853699681184E-05   1.98814575474093E-11   1.00000000000000E+00
      1.00000000000000E+00   0.00000000000000E+00  -8.07344838910396E-16   8.51417558430242E-03   2.29662734463230E-02
      3.14804490306246E-02   5.49117731890849E-12   0.00000000000000E+00   4.70000000000000E+01   2.00000000000000E-02
      9.38222963250563E-06   1.44924695391186E-06   1.50000000000000E+01   2.42600000000000E+03   7.58000000000000E+00
      6.74000000000000E+00   1.44700000000000E+01   1.27813000000000E+03   1.25121000000000E+03   2.56166000000000E+03
      2.70000000000000E+00   2.34000000000000E+00   5.10000000000000E+00   4.56040000000000E+02   4.43000000000000E+02
      9.11940000000000E+02   9.19000000000000E+02   1.07000000000000E+02
      4.20975000000000E+00
      0.00000000000000E+00   0.00000000000000E+00   0.00000000000000E+00  -7.81175201317599E-16   2.06944751471637E-04
      8.28950606601112E-04   1.03589535807197E-03   5.71622858187726E-12  -1.16100000000000E+01  -1.16100000000000E+01
      0.00000000000000E+00   1.44379032908231E-11  -9.03992958924390E-03  -2.34656819121017E-02  -3.25056114869077E-02
     -2.76710106166780E-11   0.00000000000000E+00   0.00000000000000E+00   0.00000000000000E+00  -3.66963477872069E-13
     -1.19357484187884E-05  -4.95585751970749E-12  -1.19357537416094E-05   1.98636186069098E-11   1.00000000000000E+00
      1.00000000000000E+00   0.00000000000000E+00  -8.67645034263949E-16   8.51503707196657E-03   2.29666148106116E-02
      3.14816518825774E-02   5.49116342789093E-12   4.00000000000000E+00   5.10000000000000E+01   1.25000000000000E-03
      9.00022107670013E-06   3.04732137576160E-08   2.10000000000000E+01   2.46300000000000E+03   1.03800000000000E+01
      8.99000000000000E+00   1.96300000000000E+01   1.29783000000000E+03   1.27040000000000E+03   2.60101000000000E+03
      3.64000000000000E+00   3.02000000000000E+00   6.76000000000000E+00   4.62990000000000E+02   4.50100000000000E+02
      9.26140000000000E+02   9.19000000000000E+02   9.30000000000000E+01
      4.21225000000000E+00
      0.00000000000000E+00   0.00000000000000E+00   0.00000000000000E+00  -7.81230934023304E-16   2.05253145324023E-04
      8.23277788920575E-04   1.02853093424382E-03   5.71626476126143E-12  -1.15100000000000E+01  -1.15100000000000E+01
      0.00000000000000E+00   1.46199939265478E-11  -9.03954093202801E-03  -2.34610052068269E-02  -3.25005461242349E-02
     -2.76352897109317E-11   0.00000000000000E+00   0.00000000000000E+00   0.00000000000000E+00  -3.80488842399733E-13
     -1.20378820373371E-05  -4.92304464647561E-12  -1.20378873408705E-05   1.98278893031654E-11   1.00000000000000E+00
      1.00000000000000E+00   0.00000000000000E+00  -8.67238919974318E-16   8.51675672131152E-03   2.29672963560213E-02
      3.14840530773320E-02   5.49113564650494E-12   0.00000000000000E+00   5.10000000000000E+01   2.50000000000000E-03
      8.75597660358542E-06   8.82107527774003E-04   1.20000000000000E+01   2.47500000000000E+03   6.12000000000000E+00
      4.88000000000000E+00   1.11600000000000E+01   1.30395000000000E+03   1.27528000000000E+03   2.61217000000000E+03
      2.19000000000000E+00   1.67000000000000E+00   3.91000000000000E+00   4.65180000000000E+02   4.51770000000000E+02
      9.30049999999999E+02   9.19000000000000E+02   1.01000000000000E+02
      4.21725000000000E+00
      0.00000000000000E+00   0.00000000000000E+00   0.00000000000000E+00  -7.88326809152525E-16   2.01763528547282E-04
      8.11638639956194E-04   1.01340216850269E-03   5.71634063346101E-12  -1.13100000000000E+01  -1.13100000000000E+01
      0.00000000000000E+00   1.50314801162745E-11  -9.03880991211061E-03  -2.34514744427580E-02  -3.24902843398371E-02
     -2.75635472314603E-11   0.00000000000000E+00   0.00000000000000E+00   0.00000000000000E+00  -3.91178056575092E-13
     -1.22462516825841E-05  -4.88516762671628E-12  -1.22462569589298E-05   1.97561265535555E-11   1.00000000000000E+00
      1.00000000000000E+00   0.00000000000000E+00  -8.57728933013306E-16   8.52037929871411E-03   2.29687491295801E-02
      3.14891284282934E-02   5.49108004444373E-12   0.00000000000000E+00   5.10000000000000E+01   5.00000000000000E-03
      9.32552194250916E-06   5.87817817373667E-06   4.00000000000000E+00   2.47900000000000E+03   2.35000000000000E+00
      1.73000000000000E+00   4.12000000000000E+00   1.30630000000000E+03   1.27701000000000E+03   2.61629000000000E+03
      8.10000000000000E-01   6.20000000000000E-01   1.45000000000000E+00   4.65990000000000E+02   4.52390000000000E+02
      9.31500000000000E+02   9.19000000000000E+02   1.16000000000000E+02
      4.22725000000000E+00
      0.00000000000000E+00   0.00000000000000E+00   0.00000000000000E+00  -8.38853421288723E-16   1.93391311489938E-04
      7.84688031316167E-04   9.78079342805266E-04   5.71653502028153E-12  -1.09100000000000E+01  -1.09100000000000E+01
      0.00000000000000E+00   1.59320561218620E-11  -9.03764698823146E-03  -2.34300403937553E-02  -3.24676873660547E-02
     -2.74188232192937E-11   0.00000000000000E+00   0.00000000000000E+00   0.00000000000000E+00  -4.12174642478443E-13
     -1.26807897695207E-05  -4.80888026589094E-12  -1.26807949905756E-05   1.96113214108987E-11   1.00000000000000E+00
      1.00000000000000E+00   0.00000000000000E+00  -8.26190270095175E-16   8.52966431453066E-03   2.29726245037102E-02
      3.15022888182400E-02   5.49096678811358E-12   0.00000000000000E+00   5.10000000000000E+01   1.00000000000000E-02
      8.42546577981337E-06   1.68036891325910E-04   6.00000000000000E+00   2.48500000000000E+03   3.29000000000000E+00
      2.64000000000000E+00   6.02000000000000E+00   1.30959000000000E+03   1.27965000000000E+03   2.62231000000000E+03
      1.20000000000000E+00   9.80000000000000E-01   2.20000000000000E+00   4.67190000000000E+02   4.53370000000000E+02
      9.33700000000000E+02   9.19000000000000E+02   1.05000000000000E+02
      4.24725000000000E+00
      0.00000000000000E+00   0.00000000000000E+00   0.00000000000000E+00  -1.08180162824410E-15   1.64213265908181E-04
      6.96684525332692E-04   8.60897791239791E-04   5.71731618164086E-12  -1.01100000000000E+01  -1.01100000000000E+01
      0.00000000000000E+00   1.78175199964825E-11  -9.03385596214843E-03  -2.33629112546144E-02  -3.23967671989453E-02
     -2.71253790085465E-11   0.00000000000000E+00   0.00000000000000E+00   0.00000000000000E+00  -4.67216503647947E-13
     -1.36482904410879E-05  -4.63684820754941E-12  -1.36482955451526E-05   1.93173411156034E-11   1.00000000000000E+00
      1.00000000000000E+00   0.00000000000000E+00  -7.44836073079618E-16   8.56247596356474E-03   2.29870417396867E-02
      3.15495177032507E-02   5.49072171130222E-12   0.00000000000000E+00   5.10000000000000E+01   2.00000000000000E-02
      7.55393775010095E-06   2.93076220759256E-04   7.00000000000000E+00   2.49200000000000E+03   3.77000000000000E+00
      3.06000000000000E+00   6.92000000000000E+00   1.31336000000000E+03   1.28271000000000E+03   2.62923000000000E+03
      1.34000000000000E+00   1.06000000000000E+00   2.43000000000000E+00   4.68530000000000E+02   4.54430000000000E+02
      9.36130000000000E+02   9.19000000000000E+02   1.03000000000000E+02
      4.26725000000000E+00
      0.00000000000000E+00   0.00000000000000E+00   0.00000000000000E+00  -1.82429995193947E-15   1.02113513490695E-04
      5.01963592833998E-04   6.04077106322869E-04   5.71933297618823E-12  -9.31000000000000E+00  -9.31000000000000E+00
      0.00000000000000E+00   2.02490651015695E-11  -8.96894365502819E-03  -2.31924004542305E-02  -3.21613440890097E-02
     -2.68195273669794E-11   0.00000000000000E+00   0.00000000000000E+00   0.00000000000000E+00  -5.59824989485409E-13
     -1.47839590943296E-05  -4.35157218495135E-12  -1.47839640057267E-05   1.90096859947546E-11   1.00000000000000E+00