DF-ISE text

Info {
  version   = 1.0
  type      = xyplot
  datasets  = [
    "time"
    "Source OuterVoltage" "Source InnerVoltage" "Source QuasiFermiPotential" "Source DisplacementCurrent" "Source eCurrent"
    "Source hCurrent" "Source TotalCurrent" "Source Charge" "Gate OuterVoltage" "Gate InnerVoltage"
    "Gate QuasiFermiPotential" "Gate DisplacementCurrent" "Gate eCurrent" "Gate hCurrent" "Gate TotalCurrent"
    "Gate Charge" "Body OuterVoltage" "Body InnerVoltage" "Body QuasiFermiPotential" "Body DisplacementCurrent"
    "Body eCurrent" "Body hCurrent" "Body TotalCurrent" "Body Charge" "Drain OuterVoltage"
    "Drain InnerVoltage" "Drain QuasiFermiPotential" "Drain DisplacementCurrent" "Drain eCurrent" "Drain hCurrent"
    "Drain TotalCurrent" "Drain Charge" "SimStats Restarts" "SimStats CumulativeRestarts" "SimStats Stepsize"
    "SimStats Rhs" "SimStats error" "SimStats Iterations" "SimStats CumulativeIterations" "SimStats AssemblyTime"
    "SimStats SolveTime" "SimStats TotalTime" "SimStats CumulativeAssemblyTime" "SimStats CumulativeSolveTime" "SimStats CumulativeTotalTime"
    "SimStats AssemblyTime_wall" "SimStats SolveTime_wall" "SimStats TotalTime_wall" "SimStats CumulativeAssemblyTime_wall" "SimStats CumulativeSolveTime_wall"
    "SimStats CumulativeTotalTime_wall" "SimStats PeakMemory" "SimStats AverageMemory" ]
  functions = [
    Time
    OuterVoltage InnerVoltage QuasiFermiPotential DisplacementCurrent eCurrent
    hCurrent TotalCurrent Charge OuterVoltage InnerVoltage
    QuasiFermiPotential DisplacementCurrent eCurrent hCurrent TotalCurrent
    Charge OuterVoltage InnerVoltage QuasiFermiPotential DisplacementCurrent
    eCurrent hCurrent TotalCurrent Charge OuterVoltage
    InnerVoltage QuasiFermiPotential DisplacementCurrent eCurrent hCurrent
    TotalCurrent Charge Restarts CumulativeRestarts Stepsize
    Rhs error Iterations CumulativeIterations AssemblyTime
    SolveTime TotalTime CumulativeAssemblyTime CumulativeSolveTime CumulativeTotalTime
    AssemblyTime_wall SolveTime_wall TotalTime_wall CumulativeAssemblyTime_wall CumulativeSolveTime_wall
    CumulativeTotalTime_wall PeakMemory AverageMemory ]
}

Data {
      0.00000000000000E+00
      0.00000000000000E+00   0.00000000000000E+00   0.00000000000000E+00   0.00000000000000E+00  -5.79118123087855E-20
      1.02903320335495E-20  -4.76214802752360E-20   5.72813555401554E-12   0.00000000000000E+00   0.00000000000000E+00
      0.00000000000000E+00   0.00000000000000E+00   1.10440120939187E-22  -4.94874949478127E-26   1.10390633444239E-22
      8.57035190755313E-12   0.00000000000000E+00   0.00000000000000E+00   0.00000000000000E+00   0.00000000000000E+00
      2.15414925740993E-23   4.06192767710276E-26   2.15821118508703E-23  -1.66409742836061E-11   0.00000000000000E+00
      0.00000000000000E+00   0.00000000000000E+00   0.00000000000000E+00  -1.23881633863094E-19  -7.19081104672278E-21
     -1.31072444909817E-19   5.74248682203744E-12   0.00000000000000E+00   0.00000000000000E+00   0.00000000000000E+00
      1.62961886796841E-09   2.06266618250890E-07   1.90000000000000E+01   3.70000000000000E+01   1.43000000000000E+00
      1.37000000000000E+00   3.53000000000000E+00   2.64000000000000E+00   2.29000000000000E+00   6.34000000000000E+00
      6.80000000000000E-01   5.30000000000000E-01   1.96000000000000E+00   1.12000000000000E+00   9.30000000000000E-01
      3.60000000000000E+00   3.89000000000000E+02   1.50000000000000E+01
      0.00000000000000E+00
      0.00000000000000E+00   0.00000000000000E+00   0.00000000000000E+00   0.00000000000000E+00   5.61435825562692E-20
     -4.76347189045374E-20   8.50886365173175E-21   5.72813555401540E-12   0.00000000000000E+00   0.00000000000000E+00
      0.00000000000000E+00   0.00000000000000E+00   1.80875640210158E-22   4.12399878375694E-28   1.80876052610036E-22
      8.57035190754822E-12   0.00000000000000E+00   0.00000000000000E+00   0.00000000000000E+00   0.00000000000000E+00
     -1.83563880735273E-23   1.41706831542732E-29  -1.83563739028441E-23  -1.66409742836009E-11   0.00000000000000E+00
      0.00000000000000E+00   0.00000000000000E+00   0.00000000000000E+00  -1.29965230558046E-19  -5.53357862840290E-20
     -1.85301016842075E-19   5.74248682203731E-12   0.00000000000000E+00   0.00000000000000E+00   0.00000000000000E+00
      3.73531317852077E-06   8.42596293805449E-08   1.00000000000000E+00   3.80000000000000E+01   8.10000000000000E-01
      7.20000000000000E-01   1.64000000000000E+00   3.45000000000000E+00   3.01000000000000E+00   7.98000000000000E+00
      2.80000000000000E-01   3.80000000000000E-01   7.50000000000000E-01   1.40000000000000E+00   1.31000000000000E+00
      4.35000000000000E+00   5.67000000000000E+02   1.17000000000000E+02
      1.00000000000000E-03
      0.00000000000000E+00   0.00000000000000E+00   0.00000000000000E+00  -1.08051217845161E-11  -4.02586665880326E-04
     -1.58809354236026E-06  -4.04174770227808E-04   5.72793198353659E-12   0.00000000000000E+00   0.00000000000000E+00
      0.00000000000000E+00   1.41355710602880E-09  -2.92638633464329E-14  -8.44825118702782E-15   1.41351939391426E-09
      8.56939614284225E-12   0.00000000000000E+00   0.00000000000000E+00   0.00000000000000E+00  -3.75909071944410E-14
     -9.74218721519076E-08  -8.53446027179587E-20  -9.74219097429002E-08  -1.66400144036170E-11   1.00000000000000E-03
      1.00000000000000E-03   0.00000000000000E+00  -5.72290132857536E-13   4.02684088756057E-04   1.58809542988342E-06
      4.04272183613650E-04   5.74268627723819E-12   0.00000000000000E+00   0.00000000000000E+00   1.00000000000000E-03
      4.45930239197409E-06   1.52419558429312E-07   4.00000000000000E+00   4.20000000000000E+01   2.32000000000000E+00
      1.90000000000000E+00   4.28000000000000E+00   5.77000000000000E+00   4.91000000000000E+00   1.22600000000000E+01
      8.20000000000000E-01   6.90000000000000E-01   1.52000000000000E+00   2.22000000000000E+00   2.00000000000000E+00
      5.87000000000000E+00   6.58000000000000E+02   8.10000000000000E+01
      3.00000000000000E-03
      0.00000000000000E+00   0.00000000000000E+00   0.00000000000000E+00  -1.83381497212546E-14  -1.20771302780553E-03
     -4.80772894971864E-06  -1.21252075677359E-03   5.72752550233949E-12   0.00000000000000E+00   0.00000000000000E+00
      0.00000000000000E+00  -2.65642252218271E-12  -8.77580315216500E-14  -2.60467135052817E-14  -2.77022726720964E-12
      8.56765745317823E-12   0.00000000000000E+00   0.00000000000000E+00   0.00000000000000E+00  -3.73414719284168E-14
     -2.88976270360747E-07  -2.49358361042635E-19  -2.88976307702469E-07  -1.66382677279364E-11   3.00000000000000E-03
      3.00000000000000E-03   0.00000000000000E+00   1.85129965041717E-14   1.20800200499261E-03   4.80773084039357E-06
      1.21280973585152E-03   5.74308477241872E-12   0.00000000000000E+00   0.00000000000000E+00   2.00000000000000E-03
      3.93062179535283E-06   4.92706504438855E-07   5.00000000000000E+00   4.70000000000000E+01   2.82000000000000E+00
      2.44000000000000E+00   5.32000000000000E+00   8.59000000000000E+00   7.35000000000000E+00   1.75800000000000E+01
      1.04000000000000E+00   8.80000000000000E-01   1.96000000000000E+00   3.26000000000000E+00   2.88000000000000E+00
      7.83000000000000E+00   6.61000000000000E+02   5.50000000000000E+01
      7.00000000000000E-03
      0.00000000000000E+00   0.00000000000000E+00   0.00000000000000E+00  -1.83601086233204E-14  -2.81770430024556E-03
     -1.14206752957423E-05  -2.82912497555967E-03   5.72671456243734E-12   0.00000000000000E+00   0.00000000000000E+00
      0.00000000000000E+00  -2.69351946858878E-12  -2.07114058274040E-13  -6.42707996543032E-14  -2.96490432651712E-12
      8.56436170816188E-12   0.00000000000000E+00   0.00000000000000E+00   0.00000000000000E+00  -3.68529889519809E-14
     -6.59405625247178E-07  -5.62262169553922E-19  -6.59405662100730E-07  -1.66349564575732E-11   7.00000000000000E-03
      7.00000000000000E-03   0.00000000000000E+00   1.85279742367934E-14   2.81836370674156E-03   1.14206774265863E-05
      2.82978438418667E-03   5.74388018697399E-12   0.00000000000000E+00   0.00000000000000E+00   4.00000000000000E-03
      6.11154957628538E-06   8.15862901783552E-03   2.00000000000000E+00   4.90000000000000E+01   1.40000000000000E+00
      9.00000000000000E-01   2.33000000000000E+00   9.99000000000000E+00   8.25000000000000E+00   1.99100000000000E+01
      4.80000000000000E-01   3.10000000000000E-01   8.00000000000000E-01   3.74000000000000E+00   3.19000000000000E+00
      8.63000000000000E+00   6.61000000000000E+02   6.70000000000000E+01
      1.50000000000000E-02
      0.00000000000000E+00   0.00000000000000E+00   0.00000000000000E+00  -1.84150476780144E-14  -6.03620596914690E-03
     -2.53734368330104E-05  -6.06157940599833E-03   5.72510080765759E-12   0.00000000000000E+00   0.00000000000000E+00
      0.00000000000000E+00  -2.76779285101175E-12  -4.55923432239923E-13  -1.54627388421401E-13  -3.37834367167307E-12
      8.55849794257926E-12   0.00000000000000E+00   0.00000000000000E+00   0.00000000000000E+00  -3.59169786825116E-14
     -1.35327248001797E-06  -1.13284118221211E-18  -1.35327251593609E-06  -1.66290636505991E-11   1.50000000000000E-02
      1.50000000000000E-02   0.00000000000000E+00   1.85708218865683E-14   6.03755924240556E-03   2.53734394684750E-05
      6.06293268189261E-03   5.74546490036226E-12   0.00000000000000E+00   0.00000000000000E+00   8.00000000000000E-03
      3.73618912100840E-06   7.43816975187551E-07   3.00000000000000E+00   5.20000000000000E+01   1.85000000000000E+00
      1.44000000000000E+00   3.34000000000000E+00   1.18400000000000E+01   9.69000000000000E+00   2.32500000000000E+01
      6.40000000000000E-01   4.90000000000000E-01   1.14000000000000E+00   4.38000000000000E+00   3.68000000000000E+00
      9.77000000000000E+00   6.61000000000000E+02   6.00000000000000E+01
      3.10000000000000E-02
      0.00000000000000E+00   0.00000000000000E+00   0.00000000000000E+00  -1.85584630510692E-14  -1.24646516471719E-02
     -5.63426265513911E-05  -1.25209942737419E-02   5.72190549941342E-12   0.00000000000000E+00   0.00000000000000E+00
      0.00000000000000E+00  -2.92160944708616E-12  -1.00184683920867E-12  -4.10050085839002E-13  -4.33350637213383E-12
      8.54978937863103E-12   0.00000000000000E+00   0.00000000000000E+00   0.00000000000000E+00  -3.41987030824842E-14
     -2.58044107376558E-06  -2.08999404620106E-18  -2.58044110796638E-06  -1.66203064909951E-11   3.10000000000000E-02
      3.10000000000000E-02   0.00000000000000E+00   1.86977049517433E-14   1.24672320888333E-02   5.63426303312892E-05
      1.25235747191833E-02   5.74861161295073E-12   0.00000000000000E+00   0.00000000000000E+00   1.60000000000000E-02
      4.37556695718569E-06   4.94997365121651E-04   3.00000000000000E+00   5.50000000000000E+01   1.88000000000000E+00
      1.57000000000000E+00   3.48000000000000E+00   1.37200000000000E+01   1.12600000000000E+01   2.67300000000000E+01
      6.70000000000000E-01   5.20000000000000E-01   1.20000000000000E+00   5.05000000000000E+00   4.20000000000000E+00
      1.09700000000000E+01   6.65000000000000E+02   6.10000000000000E+01
      6.30000000000000E-02
      0.00000000000000E+00   0.00000000000000E+00   0.00000000000000E+00  -1.89494949472414E-14  -2.52716416487931E-02
     -1.31469698954383E-04  -2.54031113477664E-02   5.71564145181936E-12   0.00000000000000E+00   0.00000000000000E+00
      0.00000000000000E+00  -3.24337232723780E-12  -2.38931368962509E-12  -1.47765299041351E-12  -7.11033900727640E-12
      8.54502870038772E-12   0.00000000000000E+00   0.00000000000000E+00   0.00000000000000E+00  -3.12911205538215E-14
     -4.57189599485080E-06  -3.49226770250373E-18  -4.57189602614542E-06  -1.66154967267749E-11   6.30000000000000E-02
      6.30000000000000E-02   0.00000000000000E+00   1.90814458003072E-14   2.52762135449755E-02   1.31469705908315E-04
      2.54076832509029E-02   5.75482657456789E-12   0.00000000000000E+00   0.00000000000000E+00   3.20000000000000E-02
      5.34052162323621E-06   9.52271778837006E-05   4.00000000000000E+00   5.90000000000000E+01   2.36000000000000E+00
      2.12000000000000E+00   4.53000000000000E+00   1.60800000000000E+01   1.33800000000000E+01   3.12600000000000E+01
      8.60000000000000E-01   7.10000000000000E-01   1.59000000000000E+00   5.91000000000000E+00   4.91000000000000E+00
      1.25600000000000E+01   6.65000000000000E+02   5.60000000000000E+01
      1.13000000000000E-01
      0.00000000000000E+00   0.00000000000000E+00   0.00000000000000E+00  -1.98357901322019E-14  -4.50969629062284E-02
     -2.85823419922713E-04  -4.53827863261710E-02   5.70616816536108E-12   0.00000000000000E+00   0.00000000000000E+00
      0.00000000000000E+00  -3.78766895599395E-12  -6.27465682769116E-12  -7.84756540058098E-12  -1.79098911842661E-11
      8.57109383092428E-12   0.00000000000000E+00   0.00000000000000E+00   0.00000000000000E+00  -2.75060742758982E-14
     -7.01137254159003E-06  -4.95266285214060E-18  -7.01137256910106E-06  -1.66416557307286E-11   1.13000000000000E-01
      1.13000000000000E-01   0.00000000000000E+00   2.00432540490962E-14   4.51039742782797E-02   2.85823438350273E-04
      4.53897977166500E-02   5.76439373444325E-12   0.00000000000000E+00   0.00000000000000E+00   5.00000000000000E-02
      4.81684078188022E-06   8.52099505084417E-07   5.00000000000000E+00   6.40000000000000E+01   2.81000000000000E+00
      2.67000000000000E+00   5.54000000000000E+00   1.88900000000000E+01   1.60500000000000E+01   3.68000000000000E+01
      9.80000000000000E-01   9.00000000000000E-01   1.89000000000000E+00   6.89000000000000E+00   5.81000000000000E+00
      1.44500000000000E+01   6.65000000000000E+02   5.40000000000000E+01
      1.63000000000000E-01
      0.00000000000000E+00   0.00000000000000E+00   0.00000000000000E+00  -2.12942623320420E-14  -6.46247111946975E-02
     -5.08133932772959E-04  -6.51328451274918E-02   5.69732094310187E-12   0.00000000000000E+00   0.00000000000000E+00
      0.00000000000000E+00  -4.04018806334223E-12  -1.48036432457337E-11  -3.63436529754923E-11  -5.51874842845682E-11
      8.61253864933500E-12   0.00000000000000E+00   0.00000000000000E+00   0.00000000000000E+00  -2.41606162440053E-14
     -9.12789495196429E-06  -6.02876763624220E-18  -9.12789497613094E-06  -1.66835056388355E-11   1.63000000000000E-01
      1.63000000000000E-01   0.00000000000000E+00   2.16266815673450E-14   6.46338390888420E-02   5.08133988791746E-04
      6.51419730776554E-02   5.77364604639868E-12   0.00000000000000E+00   0.00000000000000E+00   5.00000000000000E-02
      4.98998496916071E-06   6.34201948963610E-05   4.00000000000000E+00   6.80000000000000E+01   2.36000000000000E+00
      2.13000000000000E+00   4.54000000000000E+00   2.12500000000000E+01   1.81800000000000E+01   4.13400000000000E+01
      8.20000000000000E-01   7.10000000000000E-01   1.55000000000000E+00   7.71000000000000E+00   6.52000000000000E+00
      1.60000000000000E+01   6.67000000000000E+02   5.70000000000000E+01
      2.13000000000000E-01
      0.00000000000000E+00   0.00000000000000E+00   0.00000000000000E+00  -2.29425264286668E-14  -8.38062022462442E-02
     -8.16044095247112E-04  -8.46222463415143E-02   5.68932844973283E-12   0.00000000000000E+00   0.00000000000000E+00
      0.00000000000000E+00  -4.01561923898205E-12  -3.35357766191086E-11  -1.54598110431144E-10  -1.92149506289234E-10
      8.65256654201451E-12   0.00000000000000E+00   0.00000000000000E+00   0.00000000000000E+00  -2.16879420279021E-14
     -1.11640719422528E-05  -6.94950902505204E-18  -1.11640719639477E-05  -1.67243643962496E-11   2.13000000000000E-01
      2.13000000000000E-01   0.00000000000000E+00   2.35228654766950E-14   8.38173663174090E-02   8.16044288195196E-04
      8.46334106056278E-02   5.78246940450227E-12   0.00000000000000E+00   0.00000000000000E+00   5.00000000000000E-02
      5.23000712779756E-06   6.22946402867517E-06   5.00000000000000E+00   7.30000000000000E+01   2.84000000000000E+00
      2.72000000000000E+00   5.61000000000000E+00   2.40900000000000E+01   2.09000000000000E+01   4.69500000000000E+01
      9.80000000000000E-01   9.00000000000000E-01   1.93000000000000E+00   8.69000000000000E+00   7.42000000000000E+00
      1.79300000000000E+01   6.67000000000000E+02   5.60000000000000E+01
      2.63000000000000E-01
      0.00000000000000E+00   0.00000000000000E+00   0.00000000000000E+00  -2.44731452640963E-14  -1.02641476224187E-01
     -1.20716911043496E-03  -1.03848645334647E-01   5.68221439478572E-12   0.00000000000000E+00   0.00000000000000E+00
      0.00000000000000E+00  -3.97207562879544E-12  -7.45125089906925E-11  -6.29881285535166E-10  -7.08365870154654E-10
      8.69046598605454E-12   0.00000000000000E+00   0.00000000000000E+00   0.00000000000000E+00  -1.97548727654132E-14
     -1.32108396330546E-05  -7.79920367473392E-18  -1.32108396528172E-05  -1.67635963341643E-11   2.63000000000000E-01
      2.63000000000000E-01   0.00000000000000E+00   2.55256137756442E-14   1.02654687063164E-01   1.20716981947559E-03
      1.03861856882665E-01   5.79091595332404E-12   0.00000000000000E+00   0.00000000000000E+00   5.00000000000000E-02
      5.15645892391445E-06   1.74122832443443E-05   4.00000000000000E+00   7.70000000000000E+01   2.34000000000000E+00
      2.24000000000000E+00   4.64000000000000E+00   2.64300000000000E+01   2.31400000000000E+01   5.15900000000000E+01
      8.20000000000000E-01   7.70000000000000E-01   1.62000000000000E+00   9.51000000000000E+00   8.19000000000000E+00
      1.95500000000000E+01   6.67000000000000E+02   5.80000000000000E+01
      3.13000000000000E-01
      0.00000000000000E+00   0.00000000000000E+00   0.00000000000000E+00  -2.57652523131527E-14  -1.21162540787688E-01
     -1.67546167445838E-03  -1.22838002462172E-01   5.67597521092739E-12   0.00000000000000E+00   0.00000000000000E+00
      0.00000000000000E+00  -3.91866612100045E-12  -1.63839178563965E-10  -2.48740270426000E-09  -2.65516054894497E-09
      8.72592804176864E-12   0.00000000000000E+00   0.00000000000000E+00   0.00000000000000E+00  -1.81865430217966E-14
     -1.53015397393122E-05  -8.61163788797137E-18  -1.53015397575074E-05  -1.68009398693180E-11   3.13000000000000E-01
      3.13000000000000E-01   0.00000000000000E+00   2.74341297342317E-14   1.21177842327317E-01   1.67546432974576E-03
      1.22853306657090E-01   5.79903661662198E-12   0.00000000000000E+00   0.00000000000000E+00   5.00000000000000E-02
      6.33414497824181E-06   1.25702578072796E-07   5.00000000000000E+00   8.20000000000000E+01   2.84000000000000E+00
      2.78000000000000E+00   5.71000000000000E+00   2.92700000000000E+01   2.59200000000000E+01   5.73000000000000E+01
      1.01000000000000E+00   9.40000000000000E-01   1.97000000000000E+00   1.05200000000000E+01   9.13000000000000E+00
      2.15200000000000E+01   6.67000000000000E+02   5.50000000000000E+01
      3.63000000000000E-01
      0.00000000000000E+00   0.00000000000000E+00   0.00000000000000E+00  -2.67848238390946E-14  -1.39416042536935E-01
     -2.21362353499404E-03  -1.41629666071955E-01   5.67059368269076E-12   0.00000000000000E+00   0.00000000000000E+00
      0.00000000000000E+00  -3.85688666543513E-12  -3.59940713500850E-10  -9.54673229790422E-09  -9.91052989807051E-09
      8.75859354646138E-12   0.00000000000000E+00   0.00000000000000E+00   0.00000000000000E+00  -1.68829660615772E-14
     -1.74476524866444E-05  -9.40186950272557E-18  -1.74476525035367E-05  -1.68360602801986E-11   3.63000000000000E-01
      3.63000000000000E-01   0.00000000000000E+00   2.91504620420904E-14   1.39433490191963E-01   2.21363344299627E-03
      1.41647123634989E-01   5.80687305104651E-12   0.00000000000000E+00   0.00000000000000E+00   5.00000000000000E-02
      5.38971520719035E-06   1.81076653091148E-06   4.00000000000000E+00   8.60000000000000E+01   2.39000000000000E+00
      2.19000000000000E+00   4.63000000000000E+00   3.16600000000000E+01   2.81100000000000E+01   6.19300000000000E+01
      8.30000000000000E-01   7.50000000000000E-01   1.59000000000000E+00   1.13500000000000E+01   9.88000000000000E+00
      2.31100000000000E+01   6.67000000000000E+02   5.70000000000000E+01
      4.13000000000000E-01
      0.00000000000000E+00   0.00000000000000E+00   0.00000000000000E+00  -2.75703974957889E-14  -1.57449367116896E-01
     -2.81498459609170E-03  -1.60264351713015E-01   5.66605425738425E-12   0.00000000000000E+00   0.00000000000000E+00
      0.00000000000000E+00  -3.78743968934819E-12  -8.00324522153224E-10  -3.56114955984714E-08  -3.64156075603140E-08
      8.78801446691317E-12   0.00000000000000E+00   0.00000000000000E+00   0.00000000000000E+00  -1.57814658549892E-14
     -1.96522420611704E-05  -1.01774235996930E-17  -1.96522420769620E-05  -1.68685118017224E-11   4.13000000000000E-01
      4.13000000000000E-01   0.00000000000000E+00   3.06913045887431E-14   1.57469019374149E-01   2.81502099651994E-03
      1.60284040370700E-01   5.81444307742501E-12   0.00000000000000E+00   0.00000000000000E+00   5.00000000000000E-02
      4.74365118143633E-06   1.50859097094674E-03   4.00000000000000E+00   9.00000000000000E+01   2.33000000000000E+00
      2.23000000000000E+00   4.62000000000000E+00   3.39900000000000E+01   3.03400000000000E+01   6.65500000000000E+01
      7.80000000000000E-01   7.40000000000000E-01   1.54000000000000E+00   1.21300000000000E+01   1.06200000000000E+01
      2.46500000000000E+01   6.67000000000000E+02   5.70000000000000E+01
      4.63000000000000E-01
      0.00000000000000E+00   0.00000000000000E+00   0.00000000000000E+00  -2.81872764610084E-14  -1.75304580227146E-01
     -3.47190156073033E-03  -1.78776481787905E-01   5.66231197727711E-12   0.00000000000000E+00   0.00000000000000E+00
      0.00000000000000E+00  -3.72448827936880E-12  -1.83184609913515E-09  -1.29336107614347E-07  -1.31171678201761E-07
      8.81445067513252E-12   0.00000000000000E+00   0.00000000000000E+00   0.00000000000000E+00  -1.48394893192851E-14
     -2.19149920930900E-05  -1.09424380119386E-17  -2.19149921079404E-05  -1.68985377025572E-11   4.63000000000000E-01
      4.63000000000000E-01   0.00000000000000E+00   3.20587518870367E-14   1.75326495292462E-01   3.47203265919696E-03
      1.78798527951691E-01   5.82177505014754E-12   0.00000000000000E+00   0.00000000000000E+00   5.00000000000000E-02
      6.24925057429866E-06   2.21608376283796E-08   4.00000000000000E+00   9.40000000000000E+01   2.36000000000000E+00
      2.38000000000000E+00   4.78000000000000E+00   3.63500000000000E+01   3.27200000000000E+01   7.13300000000000E+01
      7.60000000000000E-01   8.00000000000000E-01   1.58000000000000E+00   1.28900000000000E+01   1.14200000000000E+01
      2.62300000000000E+01   6.68000000000000E+02   5.80000000000000E+01
      5.13000000000000E-01
      0.00000000000000E+00   0.00000000000000E+00   0.00000000000000E+00  -2.86329860298052E-14  -1.93015307997173E-01
     -4.17753111565199E-03  -1.97192839112854E-01   5.65925667124489E-12   0.00000000000000E+00   0.00000000000000E+00
      0.00000000000000E+00  -3.67011464890076E-12  -4.38382101129425E-09  -4.58053482554249E-07  -4.62440973680192E-07
      8.83824425613636E-12   0.00000000000000E+00   0.00000000000000E+00   0.00000000000000E+00  -1.40260808602148E-14
     -2.42341493937946E-05  -1.16993350702000E-17  -2.42341494078324E-05  -1.69263914198915E-11   5.13000000000000E-01
      5.13000000000000E-01   0.00000000000000E+00   3.38185989089929E-14   1.93039542475034E-01   4.17799322816749E-03
      1.97217535703235E-01   5.82889049251031E-12   0.00000000000000E+00   0.00000000000000E+00   5.00000000000000E-02
      4.49423726143127E-06   3.67457175569623E-05   4.00000000000000E+00   9.80000000000000E+01   2.38000000000000E+00
      2.28000000000000E+00   4.71000000000000E+00   3.87300000000000E+01   3.50000000000000E+01   7.60400000000000E+01
      7.70000000000000E-01   6.80000000000000E-01   1.48000000000000E+00   1.36600000000000E+01   1.21000000000000E+01
      2.77100000000000E+01   6.68000000000000E+02   6.00000000000000E+01
      5.63000000000000E-01
      0.00000000000000E+00   0.00000000000000E+00   0.00000000000000E+00  -2.89649144716688E-14  -2.10606550164080E-01
     -4.92514084774902E-03  -2.15531691011858E-01   5.65688027400988E-12   0.00000000000000E+00   0.00000000000000E+00
      0.00000000000000E+00  -3.62365267558785E-12  -1.10548149643936E-08  -1.58278727980044E-06  -1.59384571841751E-06
      8.85942162990044E-12   0.00000000000000E+00   0.00000000000000E+00   0.00000000000000E+00  -1.33178002154487E-14
     -2.66073388276801E-05  -1.24495835200315E-17  -2.66073388410103E-05  -1.69521289508989E-11   5.63000000000000E-01
      5.63000000000000E-01   0.00000000000000E+00   3.60058924537339E-14   2.10633158906340E-01   4.92673329004167E-03
      2.15559892196417E-01   5.83582704698856E-12   0.00000000000000E+00   0.00000000000000E+00   5.00000000000000E-02
      3.30355789545783E-05   7.76454482732743E-03   3.00000000000000E+00   1.01000000000000E+02   1.87000000000000E+00
      1.72000000000000E+00   3.63000000000000E+00   4.06000000000000E+01   3.67200000000000E+01   7.96700000000000E+01
      6.50000000000000E-01   5.50000000000000E-01   1.20000000000000E+00   1.43100000000000E+01   1.26500000000000E+01
      2.89100000000000E+01   6.68000000000000E+02   6.50000000000000E+01
      6.13000000000000E-01
      0.00000000000000E+00   0.00000000000000E+00   0.00000000000000E+00  -2.92257815535766E-14  -2.28096376049285E-01
     -5.70901379549077E-03  -2.33805389844805E-01   5.65513644204785E-12   0.00000000000000E+00   0.00000000000000E+00
      0.00000000000000E+00  -3.58902156938755E-12  -2.92821458854821E-08  -5.34219886638815E-06  -5.37148460129520E-06
      8.87813739696078E-12   0.00000000000000E+00   0.00000000000000E+00   0.00000000000000E+00  -1.26962887390903E-14
     -2.90318930454070E-05  -1.31940738105318E-17  -2.90318930581165E-05  -1.69758926482806E-11   6.13000000000000E-01
      6.13000000000000E-01   0.00000000000000E+00   3.70374987878161E-14   2.28125413681403E-01   5.71437954102510E-03
      2.33839793222465E-01   5.84261880927202E-12   0.00000000000000E+00   0.00000000000000E+00   5.00000000000000E-02
      6.01430562484822E-06   1.02013384947351E-05   4.00000000000000E+00   1.05000000000000E+02   2.42000000000000E+00
      2.42000000000000E+00   4.89000000000000E+00   4.30200000000000E+01   3.91400000000000E+01   8.45600000000000E+01
      8.70000000000000E-01   9.00000000000000E-01   1.78000000000000E+00   1.51800000000000E+01   1.35500000000000E+01
      3.06900000000000E+01   6.68000000000000E+02   5.90000000000000E+01
      6.63000000000000E-01
      0.00000000000000E+00   0.00000000000000E+00   0.00000000000000E+00  -2.94192785951995E-14  -2.45495678558239E-01
     -6.52160185660146E-03  -2.52017280414870E-01   5.65394301602573E-12   0.00000000000000E+00   0.00000000000000E+00
      0.00000000000000E+00  -3.56239183992272E-12  -8.02213829804409E-08  -1.75891683310264E-05  -1.76693932763987E-05
      8.89406191026054E-12   0.00000000000000E+00   0.00000000000000E+00   0.00000000000000E+00  -1.21469133775579E-14
     -3.15050316425756E-05  -1.39333350495215E-17  -3.15050316547365E-05  -1.69972175834561E-11   6.63000000000000E-01
      6.63000000000000E-01   0.00000000000000E+00   3.79840665177956E-14   2.45527206060051E-01   6.53924877971248E-03
      2.52066454839801E-01   5.84921265716981E-12   0.00000000000000E+00   0.00000000000000E+00   5.00000000000000E-02
      6.74625000677316E-05   1.61390811638088E-02   3.00000000000000E+00   1.08000000000000E+02   1.89000000000000E+00
      1.67000000000000E+00   3.59000000000000E+00   4.49100000000000E+01   4.08100000000000E+01   8.81500000000000E+01
      6.80000000000000E-01   5.70000000000000E-01   1.25000000000000E+00   1.58600000000000E+01   1.41200000000000E+01
      3.19400000000000E+01   6.68000000000000E+02   6.10000000000000E+01
      7.13000000000000E-01
      0.00000000000000E+00   0.00000000000000E+00   0.00000000000000E+00  -2.94959114975799E-14  -2.62806227045503E-01
     -7.34883026694981E-03  -2.70155057312482E-01   5.65313346138226E-12   0.00000000000000E+00   0.00000000000000E+00
      0.00000000000000E+00  -3.52773245857825E-12  -2.21380390887524E-07  -5.60765466790824E-05  -5.62979305977024E-05
      8.90524166656814E-12   0.00000000000000E+00   0.00000000000000E+00   0.00000000000000E+00  -1.16578278256273E-14
     -3.40239833689726E-05  -1.46676745521905E-17  -3.40239833806451E-05  -1.70139183670951E-11   7.13000000000000E-01
      7.13000000000000E-01   0.00000000000000E+00   3.88066916228716E-14   2.62840334862425E-01   7.40504436399669E-03
      2.70245379226460E-01   5.85554323914476E-12   0.00000000000000E+00   0.00000000000000E+00   5.00000000000000E-02
      4.73478017037366E-06   4.50336519740353E-05   4.00000000000000E+00   1.12000000000000E+02   2.38000000000000E+00
      2.34000000000000E+00   4.78000000000000E+00   4.72900000000000E+01   4.31500000000000E+01   9.29300000000000E+01
      8.40000000000000E-01   7.90000000000000E-01   1.66000000000000E+00   1.67000000000000E+01   1.49100000000000E+01
      3.36000000000000E+01   6.71000000000000E+02   5.80000000000000E+01
      7.63000000000000E-01
      0.00000000000000E+00   0.00000000000000E+00   0.00000000000000E+00  -2.92842481861162E-14  -2.80013827902387E-01
     -8.15808435885699E-03  -2.88171912261273E-01   5.65230871722597E-12   0.00000000000000E+00   0.00000000000000E+00
      0.00000000000000E+00  -3.43933958809695E-12  -5.97185150940582E-07  -1.69374725952964E-04  -1.69971914543244E-04
      8.90578838064214E-12   0.00000000000000E+00   0.00000000000000E+00   0.00000000000000E+00  -1.12193629516501E-14
     -3.65861672799000E-05  -1.53973001179784E-17  -3.65861672911347E-05  -1.70195105917999E-11   7.63000000000000E-01